<?xml version="1.0"?>
<VTKFile type="PolyData" version="1.0" byte_order="LittleEndian" header_type="UInt32" compressor="vtkZLibDataCompressor">
	<PolyData>
		<Piece NumberOfPoints="30" NumberOfLines="96">
			<PointData>
				<DataArray type="Float64" Name="vertex_attribute" format="ascii" NumberOfComponents="1" RangeMin="0" RangeMax="58">0 2 4 6 8 10 12 14 16 18 20 22 24 26 28 30 32 34 36 38 40 42 44 46 48 50 52 54 56 58 </DataArray>
				<DataArray type="Float64" Name="points" format="ascii" NumberOfComponents="3" RangeMin="0" RangeMax="5">0 0 0 3 0 0 3 3 0 0 3 0 0 0 4 3 0 4 3 3 4 0 3 4 1 1 1 2 1 1 2 2 1 1 2 1 1 1 2 2 1 2 2 2 2 1 2 2 1 1 3 2 1 3 2 2 3 1 2 3 4 1 1 5 1 1 5 2 1 4 2 1 4 1 3 5 1 3 5 2 3 4 2 3 1 1 3.5 1 2 3.5 </DataArray>
			</PointData>
			<Points>
				<DataArray type="Float64" Name="Points" format="ascii" NumberOfComponents="3" RangeMin="0" RangeMax="5">0 0 0 3 0 0 3 3 0 0 3 0 0 0 4 3 0 4 3 3 4 0 3 4 1 1 1 2 1 1 2 2 1 1 2 1 1 1 2 2 1 2 2 2 2 1 2 2 1 1 3 2 1 3 2 2 3 1 2 3 4 1 1 5 1 1 5 2 1 4 2 1 4 1 3 5 1 3 5 2 3 4 2 3 1 1 3.5 1 2 3.5 </DataArray>
			</Points>
			<CellData>
				<DataArray type="Float64" Name="edges" format="ascii" NumberOfComponents="2" RangeMin="0" RangeMax="29">0 1 1 2 2 3 3 0 0 1 1 5 5 4 4 0 1 2 2 6 6 5 5 1 3 2 2 6 6 7 7 3 4 5 5 6 6 7 7 4 0 3 3 7 7 4 4 0 8 9 9 10 10 11 11 8 12 13 13 14 14 15 15 12 16 17 17 18 18 19 19 16 8 9 9 13 13 12 12 8 12 13 13 17 17 16 16 12 9 10 10 14 14 13 13 9 13 14 14 18 18 17 17 13 11 10 10 14 14 15 15 11 15 14 14 18 18 19 19 15 8 11 11 15 15 12 12 8 12 15 15 19 19 16 16 12 20 21 21 22 22 23 23 20 20 21 21 25 25 24 24 20 21 22 22 26 26 25 25 21 23 22 22 26 26 27 27 23 24 25 25 26 26 27 27 24 20 23 23 27 27 24 24 20 16 19 19 29 29 28 28 16 </DataArray>
				<DataArray type="Float64" Name="edge_attribute" format="ascii" NumberOfComponents="1" RangeMin="0" RangeMax="190">0 2 4 6 8 10 12 14 16 18 20 22 24 26 28 30 32 34 36 38 40 42 44 46 48 50 52 54 56 58 60 62 64 66 68 70 72 74 76 78 80 82 84 86 88 90 92 94 96 98 100 102 104 106 108 110 112 114 116 118 120 122 124 126 128 130 132 134 136 138 140 142 144 146 148 150 152 154 156 158 160 162 164 166 168 170 172 174 176 178 180 182 184 186 188 190 </DataArray>
			</CellData>
			<Lines>
				<DataArray type="Int64" Name="connectivity" format="ascii" RangeMin="0" RangeMax="29">0 1 1 2 2 3 3 0 0 1 1 5 5 4 4 0 1 2 2 6 6 5 5 1 3 2 2 6 6 7 7 3 4 5 5 6 6 7 7 4 0 3 3 7 7 4 4 0 8 9 9 10 10 11 11 8 12 13 13 14 14 15 15 12 16 17 17 18 18 19 19 16 8 9 9 13 13 12 12 8 12 13 13 17 17 16 16 12 9 10 10 14 14 13 13 9 13 14 14 18 18 17 17 13 11 10 10 14 14 15 15 11 15 14 14 18 18 19 19 15 8 11 11 15 15 12 12 8 12 15 15 19 19 16 16 12 20 21 21 22 22 23 23 20 20 21 21 25 25 24 24 20 21 22 22 26 26 25 25 21 23 22 22 26 26 27 27 23 24 25 25 26 26 27 27 24 20 23 23 27 27 24 24 20 16 19 19 29 29 28 28 16 </DataArray>
				<DataArray type="Int64" Name="offsets" format="ascii" RangeMin="0" RangeMax="30">2 4 6 8 10 12 14 16 18 20 22 24 26 28 30 32 34 36 38 40 42 44 46 48 50 52 54 56 58 60 62 64 66 68 70 72 74 76 78 80 82 84 86 88 90 92 94 96 98 100 102 104 106 108 110 112 114 116 118 120 122 124 126 128 130 132 134 136 138 140 142 144 146 148 150 152 154 156 158 160 162 164 166 168 170 172 174 176 178 180 182 184 186 188 190 192 </DataArray>
			</Lines>
		</Piece>
	</PolyData>
</VTKFile>
