<?xml version="1.0"?>
<VTKFile type="PolyData" version="1.0" byte_order="LittleEndian" header_type="UInt32" compressor="vtkZLibDataCompressor">
	<PolyData>
		<Piece NumberOfPoints="1" NumberOfVerts="1">
			<PointData>
				<DataArray type="Float64" Name="unique vertices" format="ascii" NumberOfComponents="1" RangeMin="3" RangeMax="3">3 </DataArray>
				<DataArray type="Float64" Name="points" format="ascii" NumberOfComponents="2" RangeMin="5.80000019" RangeMax="5.80000019">5.8 5.8 </DataArray>
			</PointData>
			<Points>
				<DataArray type="Float64" Name="Points" format="ascii" NumberOfComponents="3" RangeMin="5.7999999999999998" RangeMax="5.7999999999999998">5.8 5.8 0 </DataArray>
			</Points>
			<Verts>
				<DataArray type="Int64" Name="connectivity" format="ascii" RangeMin="0" RangeMax="0">0 </DataArray>
				<DataArray type="Int64" Name="offsets" format="ascii" RangeMin="0" RangeMax="1">1 </DataArray>
			</Verts>
		</Piece>
	</PolyData>
</VTKFile>
