<?xml version="1.0"?>
<VTKFile type="PolyData" version="1.0" byte_order="LittleEndian" header_type="UInt32" compressor="vtkZLibDataCompressor">
	<PolyData>
		<Piece NumberOfPoints="7" NumberOfLines="6">
			<PointData>
				<DataArray type="Float64" Name="unique vertices" format="ascii" NumberOfComponents="1" RangeMin="0" RangeMax="11">0 4 6 7 8 9 11 </DataArray>
				<DataArray type="Float64" Name="points" format="ascii" NumberOfComponents="2" RangeMin="1.10000002" RangeMax="10">1.1 4.5 1.2 6 1.1 8.3 2 10 4 10 6 10 7 10 </DataArray>
			</PointData>
			<Points>
				<DataArray type="Float64" Name="Points" format="ascii" NumberOfComponents="3" RangeMin="1.1000000000000001" RangeMax="10">1.1 4.5 0 1.2 6 0 1.1 8.3 0 2 10 0 4 10 0 6 10 0 7 10 0 </DataArray>
			</Points>
			<CellData>
				<DataArray type="Float64" Name="edges" format="ascii" NumberOfComponents="2" RangeMin="0" RangeMax="6">0 1 1 2 2 3 3 4 4 5 5 6 </DataArray>
			</CellData>
			<Lines>
				<DataArray type="Int64" Name="connectivity" format="ascii" RangeMin="0" RangeMax="6">0 1 1 2 2 3 3 4 4 5 5 6 </DataArray>
				<DataArray type="Int64" Name="offsets" format="ascii" RangeMin="0" RangeMax="7">2 4 6 8 10 12 </DataArray>
			</Lines>
		</Piece>
	</PolyData>
</VTKFile>
