<?xml version="1.0"?>
<VTKFile type="PolyData" version="1.0" byte_order="LittleEndian" header_type="UInt32" compressor="vtkZLibDataCompressor">
	<PolyData>
		<Piece NumberOfPoints="14" NumberOfPolys="14">
			<PointData>
				<DataArray type="Float64" Name="points" format="ascii" NumberOfComponents="2" RangeMin="1.10000002" RangeMax="10">1.1 4.5 3 5 1.2 6 3 8 5 8.2 5 5.5 1.1 8.3 2 10 4 10 6 10 7 10 5.9 7.7 6.1 7 5.8 5.8 </DataArray>
				<DataArray type="Float64" Name="unique vertices" format="ascii" NumberOfComponents="1" RangeMin="0" RangeMax="13">0 1 4 5 10 2 6 7 8 9 11 12 13 3 </DataArray>
			</PointData>
			<Points>
				<DataArray type="Float64" Name="Points" format="ascii" NumberOfComponents="3" RangeMin="1.1000000000000001" RangeMax="10">1.1 4.5 0 3 5 0 1.2 6 0 3 8 0 5 8.2 0 5 5.5 0 1.1 8.3 0 2 10 0 4 10 0 6 10 0 7 10 0 5.9 7.7 0 6.1 7 0 5.8 5.8 0 </DataArray>
			</Points>
			<CellData>
				<DataArray type="Float64" Name="triangle_adjacents" format="ascii" NumberOfComponents="3" RangeMin="0" RangeMax="4.2949673e+09">4.29497e+09 1 4.29497e+09 2 4 0 3 7 1 4.29497e+09 12 2 1 5 4.29497e+09 6 4.29497e+09 4 7 4.29497e+09 5 2 8 6 9 4.29497e+09 7 10 4.29497e+09 8 11 4.29497e+09 9 12 4.29497e+09 10 13 11 3 4.29497e+09 4.29497e+09 12 </DataArray>
				<DataArray type="Float64" Name="triangle_vertices" format="ascii" NumberOfComponents="3" RangeMin="0" RangeMax="13">0 1 2 1 3 2 1 4 3 1 5 4 2 3 6 3 7 6 3 8 7 3 4 8 4 9 8 4 10 9 4 11 10 4 12 11 5 12 4 5 13 12 </DataArray>
			</CellData>
			<Polys>
				<DataArray type="Int64" Name="connectivity" format="ascii" RangeMin="0" RangeMax="13">0 1 2 1 3 2 1 4 3 1 5 4 2 3 6 3 7 6 3 8 7 3 4 8 4 9 8 4 10 9 4 11 10 4 12 11 5 12 4 5 13 12 </DataArray>
				<DataArray type="Int64" Name="offsets" format="ascii" RangeMin="0" RangeMax="14">3 6 9 12 15 18 21 24 27 30 33 36 39 42 </DataArray>
			</Polys>
		</Piece>
	</PolyData>
</VTKFile>
