<?xml version="1.0"?>
<VTKFile type="PolyData" version="1.0" byte_order="LittleEndian" header_type="UInt32" compressor="vtkZLibDataCompressor">
	<PolyData>
		<Piece NumberOfPoints="9" NumberOfLines="8">
			<PointData>
				<DataArray type="Float64" Name="points" format="ascii" NumberOfComponents="2" RangeMin="1.10000002" RangeMax="11">1.1 4.5 1.1 1.5 4.5 1.4 6.4 1.7 8.2 1.9 11 2 10.9 4 10.7 6.9 10.6 8.5 </DataArray>
				<DataArray type="Float64" Name="unique vertices" format="ascii" NumberOfComponents="1" RangeMin="0" RangeMax="30">0 18 19 20 21 22 27 30 15 </DataArray>
			</PointData>
			<Points>
				<DataArray type="Float64" Name="Points" format="ascii" NumberOfComponents="3" RangeMin="1.1000000000000001" RangeMax="11">1.1 4.5 0 1.1 1.5 0 4.5 1.4 0 6.4 1.7 0 8.2 1.9 0 11 2 0 10.9 4 0 10.7 6.9 0 10.6 8.5 0 </DataArray>
			</Points>
			<CellData>
				<DataArray type="Float64" Name="edges" format="ascii" NumberOfComponents="2" RangeMin="0" RangeMax="8">0 1 1 2 2 3 3 4 4 5 5 6 6 7 7 8 </DataArray>
			</CellData>
			<Lines>
				<DataArray type="Int64" Name="connectivity" format="ascii" RangeMin="0" RangeMax="8">0 1 1 2 2 3 3 4 4 5 5 6 6 7 7 8 </DataArray>
				<DataArray type="Int64" Name="offsets" format="ascii" RangeMin="0" RangeMax="9">2 4 6 8 10 12 14 16 </DataArray>
			</Lines>
		</Piece>
	</PolyData>
</VTKFile>
