<?xml version="1.0"?>
<VTKFile type="PolyData" version="1.0" byte_order="LittleEndian" header_type="UInt32" compressor="vtkZLibDataCompressor">
	<PolyData>
		<Piece NumberOfPoints="23" NumberOfPolys="26">
			<PointData>
				<DataArray type="Float64" Name="unique vertices" format="ascii" NumberOfComponents="1" RangeMin="0" RangeMax="31">18 19 23 24 20 25 21 26 22 27 30 29 15 14 28 3 0 1 2 13 3 31 31 </DataArray>
				<DataArray type="Float64" Name="points" format="ascii" NumberOfComponents="2" RangeMin="1.10000002" RangeMax="11">1.1 1.5 4.5 1.4 2.9 3 4.9 3.1 6.4 1.7 6.3 4 8.2 1.9 8.5 4 11 2 10.9 4 10.7 6.9 9.4 6 10.6 8.5 8 7.5 7 5.95 5.8 5.8 1.1 4.5 3 5 5 5.5 6.1 7 5.8 5.8 5.35 4.45 5.35 4.45 </DataArray>
			</PointData>
			<Points>
				<DataArray type="Float64" Name="Points" format="ascii" NumberOfComponents="3" RangeMin="1.1000000000000001" RangeMax="11">1.1 1.5 0 4.5 1.4 0 2.9 3 0 4.9 3.1 0 6.4 1.7 0 6.3 4 0 8.2 1.9 0 8.5 4 0 11 2 0 10.9 4 0 10.7 6.9 0 9.4 6 0 10.6 8.5 0 8 7.5 0 7 5.95 0 5.8 5.8 0 1.1 4.5 0 3 5 0 5 5.5 0 6.1 7 0 5.8 5.8 0 5.35 4.45 0 5.35 4.45 0 </DataArray>
			</Points>
			<CellData>
				<DataArray type="Float64" Name="triangle_vertices" format="ascii" NumberOfComponents="3" RangeMin="0" RangeMax="22">0 1 2 1 3 2 1 4 3 4 5 3 4 6 5 6 7 5 6 8 7 8 9 7 9 10 11 10 12 11 11 12 13 7 9 11 14 11 13 7 11 14 5 7 14 5 14 20 0 2 16 16 2 17 2 3 17 3 18 17 20 14 19 14 13 19 20 21 5 21 3 5 3 22 18 22 15 18 </DataArray>
				<DataArray type="Float64" Name="triangle_adjacents" format="ascii" NumberOfComponents="3" RangeMin="0" RangeMax="4.2949673e+09">4.29497e+09 1 16 2 18 0 4.29497e+09 3 1 4 23 2 4.29497e+09 5 3 6 14 4 4.29497e+09 7 5 4.29497e+09 11 6 4.29497e+09 9 11 4.29497e+09 10 8 9 4.29497e+09 12 7 8 13 13 10 21 11 12 14 5 13 15 14 20 22 0 17 4.29497e+09 16 18 4.29497e+09 1 19 17 24 4.29497e+09 18 15 21 4.29497e+09 12 4.29497e+09 20 4.29497e+09 23 15 4.29497e+09 3 22 4.29497e+09 25 19 4.29497e+09 4.29497e+09 24 </DataArray>
			</CellData>
			<Polys>
				<DataArray type="Int64" Name="connectivity" format="ascii" RangeMin="0" RangeMax="22">0 1 2 1 3 2 1 4 3 4 5 3 4 6 5 6 7 5 6 8 7 8 9 7 9 10 11 10 12 11 11 12 13 7 9 11 14 11 13 7 11 14 5 7 14 5 14 20 0 2 16 16 2 17 2 3 17 3 18 17 20 14 19 14 13 19 20 21 5 21 3 5 3 22 18 22 15 18 </DataArray>
				<DataArray type="Int64" Name="offsets" format="ascii" RangeMin="0" RangeMax="23">3 6 9 12 15 18 21 24 27 30 33 36 39 42 45 48 51 54 57 60 63 66 69 72 75 78 </DataArray>
			</Polys>
		</Piece>
	</PolyData>
</VTKFile>
