<?xml version="1.0"?>
<VTKFile type="UnstructuredGrid" version="1.0" byte_order="LittleEndian" header_type="UInt32" compressor="vtkZLibDataCompressor">
	<UnstructuredGrid>
		<Piece NumberOfPoints="741" NumberOfCells="2900">
			<PointData>
				<DataArray type="Float64" Name="points" format="ascii" NumberOfComponents="3" RangeMin="0" RangeMax="10">3.34007 0 7.17636 4.08779 0 6.46563 3.92355 1.30262 5.97915 4.5144 0.895982 6.97309 4.72745 10 6.75803 4.60728 10 5.76428 4.9758 8.97113 6.05402 4.06053 9.24414 5.84294 3.90011 6.12078 5.38685 3.05051 5.73968 6.36536 2.74863 6.52547 5.30429 3.07574 5.53776 5.17896 6.5 2.59808 10 6 1.73205 10 5.5 2.02073 9.17591 6.50825 2.02549 9.17012 0 0 6 0.872888 0 6.49111 0.924483 0 5.45216 0.918285 0.923757 6 3.17334 8.01025 4.26933 3.99218 8.47248 4.59687 3.10138 9.06798 4.24055 3.30063 8.87631 5.43832 7.45291 6.63078 8.83111 6.5 6.06218 10 6.02844 6.38584 9.04025 7.13844 5.67558 8.57455 0 0 3 0.928477 0 3.37139 0.62536 0.657188 3.25014 0 0 4 5.36123 1.40864 7.26181 5.9215 2.79131 6.95109 5.30345 2.94947 7.88856 6.00712 2.17662 8.21001 5.55525 6.06456 10 5.96202 6.95392 10 5.91385 0 7.16731 6.42934 1.15129 6.7915 5.68971 0.836987 7.9712 0.785951 7.51762 3.31438 0.760006 8.6062 3.304 0 8 3 0 8.49792 3.79955 2.45608 0 9.09959 2.47918 1.07796 10 2.76538 1.26095 8.67782 1.96354 0.858447 9.15913 6.74387 7.39007 5.69755 7.25962 8.20708 5.90385 6.30184 8.27035 5.52074 6.04941 7.37998 7.09875 0 8.01785 8.28606 0 7.00214 8.22561 0.968296 6.99317 7.64212 0.896575 7.37388 8.61249 8.49045 4.38806 10 9.32016 4.45613 10 8.88593 3.42899 8.80337 8.95215 4.82913 8.98563 8.03127 0 8.33715 7.08327 0 8.2997 7.50809 0 9.14263 7.54635 1.07845 8.59483 0 4.47662 3.84562 0.804084 4.5 3.32163 0.973606 5.48438 4.45239 0.904281 4.40564 4.99375 5.08787 10 8.27583 5.56129 8.55632 8.57292 4.74578 8.56065 9.17034 4.41761 9.22827 7.85931 0 9 3 0 9.33206 3.67371 0.768544 10 3.30742 8.24429 4.27794 8.20639 7.0513 4.01183 9.16263 7.51755 4.91415 9.16921 0 6 3 0 5.5 3.86603 0.804084 5.5 3.32163 0 6.5 3.86603 7.39476 8.79979 8.84882 7.02746 8.52157 10 6.41894 9.11723 8.61789 6.12188 8.09111 9.1752 4.80068 7.98305 4.92027 4.68324 7.51048 5.7078 4.08508 8.21483 5.64946 4.40902 0 9.10004 3.52491 0.901928 10 4.5 0.866025 10 3.57031 1.4094 9.18373 2.48181 1.1693 6.96513 3.56926 1.11337 7.71925 10 3 7 10 3.49865 7.80007 9.19592 3.5 6.67837 9.15552 2.99944 7.55577 3.95378 2.9587 9.07058 3.21785 3.33708 8.24381 3.91911 4.05629 8.42288 3.95108 3.5591 7.38761 3.08438 2.20762 6.64038 2.21255 0.845128 6.09434 1.78795 1.63493 6.46897 1.09135 8.16755 7.75298 0 8 6.4641 1.14227 9.12989 6.9821 1.0798 7.5 6.56642 4.12744 5.59984 4.65098 3.91824 4.9743 5.52543 2.59808 6.5 10 2.8699 7.00389 8.71133 2.3094 6 9.049 2.05716 7.62072 9.06624 1.98168 10 5.89375 2.78843 10 5.07292 3.04414 10 6.06164 2.28216 9.07852 4.91756 5.41017 0 8.93428 4.37282 1.37262 8.6541 1.41509 1.41328 8.54722 2.14613 1.95576 9.10917 8.65617 6.93791 10 9.24685 6.48879 10 8.9665 5.96983 9.03145 9.27222 7.01752 9.08007 10 7.00229 8.55813 10 7.49923 7.79087 10 6.49977 7.80495 9.19531 6.96726 7.53756 0.846023 6.5 6.75278 0 6.5 5.59808 1.48066 6.74519 5.94176 0.817848 5.5 6.17387 1.52403 9.08103 3.60961 0 7 3 0.804084 6.5 3.32163 0.952638 0 4.39854 0 0.798256 4.50504 0 0 5 0.781683 1.47221 10 0 1.46398 9.15659 0.844288 2.46112 10 8.38116 8.16356 8.44912 9.0334 8.93526 9.0097 7.88035 8.01597 9.21403 9.27514 8.00253 9.08119 5.237 0 7.80852 4.66488 0 8.31517 4.42578 0.806725 7.91678 9.14687 7.50665 8.34023 9.01525 8.25016 7.65738 7.79629 0.6564 6.11851 8.4463 0.930229 6.37852 7.67261 1.46218 6.06904 7.60938 1.17244 7.27043 1.75054 0 6.00393 1.71717 0 6.99491 6.75887 9.12562 5.70355 6.41632 10 6.50328 7.21457 10 5.88583 6.28609 10 5.51444 2.51523 9.34842 10 2.51839 10 9.33986 3.47817 9.06217 10 3.16941 8.53679 8.86598 5.5 2.59808 10 6 3.4641 10 6 2.88675 9.04154 0 3.43664 3.79026 0.818075 2.47892 3.32723 0 3 3 0.804084 3.5 3.32163 0.866025 7.5 10 1.73205 7 10 0.866025 6.5 10 5.49395 10 6.14738 4.82438 8.87065 7.16995 6.15204 8.66849 7.06163 5.57592 10 7.2845 2.14421 5.00048 7.04117 1.08692 5.49058 7.91852 2.22131 5.86227 7.86532 1.49953 5.7481 6.86597 1.85695 0 3.74278 2.28793 0.89613 3.91517 1.37738 0.819974 3.55095 1.52736 1.16471 4.40056 1.59646 7.0054 3.63858 0.991858 6.44677 5.05146 0.866025 0 7.5 0 0.866025 6.5 1.26478 1.26813 7.20122 9.3637 0 7.50468 9.19991 1.39117 6.67996 8.45696 0 7.3907 8.58711 1.29963 8.01819 0 9.32617 5.5166 0 9.06949 6.48756 0.923251 10 6.44787 0 10 6 6.50322 4.90562 9.11753 7 5.19615 10 0 1.62475 3.90599 0 1.71153 4.9908 0.697083 1.01639 4.01092 10 9 7 10 9.31539 7.65123 9.38548 9.33353 6.75419 8.71671 9.13216 7.41574 4.165 2.89632 6.05014 4.17814 2.59808 4.67126 2.7468 2.04533 5.38456 2.90658 3.13042 5.14087 6.51309 0 9.09201 6.14406 0 8.12924 5.98781 1.16174 8.83006 4.93001 4.08582 8.28763 4.53302 4.99921 8.95998 4.14525 4.86365 7.84139 2.11707 8.93243 7.30029 0.846835 9.1205 7.91358 8.46712 2.18408 7.41712 7.3627 2.40263 7.88994 5.08031 5.24974 10 5.56002 5.51596 8.5186 5.18956 6.02103 9.17266 1.68942 8.02053 10 0.971017 8.96722 8.92588 7 1.73205 10 7.49822 0.855431 10 7.75575 2.13826 8.98066 4.62324 6.6583 8.8672 4.62972 5.7973 8.40137 5.32439 6.38853 8.34691 0 10 4 0.847534 10 4.33299 0 6.5 9.12201 0 7.5 9.13398 3.5925 5.49788 9.06828 4.25363 6.62767 7.89004 1.42538 8.56499 6.15072 2.41225 6.5 3.9649 2.38041 7.5084 3.95216 1.35154 7.52111 5.00854 7.50628 3.22996 8.73194 7.36155 3.77554 7.64059 7.2829 4.72408 8.12278 3.44591 3.93525 10 3.47176 2.74942 10 2.96095 4.11923 9.11148 2.13077 5.27191 5.49371 1.84388 6 4.67039 8.41376 6.17572 10 8.33916 7.23801 9.00925 0 8 10 0 7 10 1.16415 2.98729 8.81345 1.29019 4.12423 7.71412 2.10804 3.80913 8.62682 0.949389 3.06453 7.64284 3.21421 6.03334 4.28568 5.73054 8.07239 7.72789 4.53179 8.29727 7.86163 5.55671 9.24449 7.89085 4.83368 9.02123 4.93347 5.74073 5.45725 6.63012 4.63955 4.78664 6.3368 4.73534 5.94845 6.08104 5.53911 4.72105 6.08989 1.76334 10 6.99246 1.60817 6 3.64327 6.42217 5.0601 5.56887 6.59668 5.28521 6.42039 7.60036 2.44601 6.04014 8.38718 2.99113 6.35487 7.01228 2.95361 6.89612 6.80763 0 7.44879 7.5766 0 7.66487 6.64489 0.975921 7.95386 9.3158 0.662177 10 10 0.674507 9.34945 10 1 10 10 0 10 4.21102 8.34228 10 4.04627 8.71697 8.54569 1.72758 3.97865 10 1.70923 2.92545 10 0.863061 3.49004 10 7.5 9.2484 10 7.50937 10 9.13849 8.49039 9.25002 10 8.36628 3.49987 7.22251 9.16042 4 7.5444 10 4.49973 7.80884 9.20283 5.42263 8.30043 8.67546 4.95275 7.49651 7.11997 1.93782 6.79196 7.90283 6.55369 6.16113 8.47694 6.99697 6.39077 7.72559 7.01604 6.97202 7.72209 6.12113 6.91562 0 0.866025 5.5 2.9217 4.92031 8.46709 1.93291 4.87168 8.09612 1.63624 3.98984 3.6545 1.00555 3.48001 4.41444 2.39083 4.00234 4.82872 1.78106 4.79005 4.68164 2.59808 5.5 10 2.16609 4.74767 9.11981 3.30397 7.99773 6.48219 4.28252 8.25788 6.61631 4.32825 2.48037 7.54979 5.11756 3.54815 6.94363 4.69442 2.02494 6.56721 8.19197 10 7.19794 8.14305 10 6.25722 8.64251 9.15989 6.45701 7.69326 9.17831 7.15752 3.45905 10 9.03028 2.54281 10 8.49243 9.23146 0 6.69258 10 1 7 5.01382 2.90164 9.18468 3.20299 7.01877 4.2812 2.30555 8.02898 4.86239 7.40817 7.91045 7.01684 6.963 7.4966 8.00646 1.03478 8.54935 4.54186 0.870465 8.90493 5.43022 1.5907 9.1037 10 2.06614 8.79482 9.00868 7.97956 5.84236 9.1592 7.60964 5.60922 7.63279 8.22062 6.72321 8.02522 8.24669 5.23482 8.43344 3.53371 6.67017 7.0924 3.19604 7.66434 7.58998 10 5.5 9.27901 3.24967 0.866025 4.29987 3.01308 0 5.11305 2.78543 0 4.11417 3.71391 0 4.48556 1.4592 6.49718 8.53158 1.58736 10 9.09579 0.66238 9.31474 10 0.659629 10 9.31039 10 2.99542 8.55909 10 2.49654 9.26947 8.88338 2.11481 8.76946 0.770429 1.47869 3.30817 1.71801 1.86166 3.68721 0.889502 2.02008 4.42025 10 4 7 8.48394 0.789018 10 0 2.73028 4.53673 0 2.54464 3.64563 0.798256 8.49496 10 0 8.49793 9.19561 0 9 10 0 0.67065 3.68306 8.41404 1.96165 6.36562 0 4.50879 7.34326 0 4.99922 8.24234 0.85485 5.00048 7.04117 6.42272 3.13081 7.8745 6.11365 3.97584 8.81144 1.55748 1.49514 5.39872 0.8567 0.790188 4.92316 0 10 7 10 5.49992 7.80735 10 6 8.56564 9.16281 5.99671 7.55651 4.84333 2.24029 8.44087 7.02902 10 8.29968 8.11991 10 8.22939 6.9957 8.9624 7.78388 5.49163 4.33739 10 10 8.01583 8.5466 10 9.10208 8.51494 10 8.48336 7.76825 0 7.5 3.86603 3.43995 6.00149 10 3.45993 4.98865 10 7.33929 10 6.80388 7.72047 9.09214 6.08819 10 4.99983 8.56565 10 3.99898 8.56614 10 4.49987 9.29725 9.31474 9.33762 10 10 9 10 9.08297 8.46222 10 10 8.49481 9.29007 5.89463 5.78281 5.35785 5.37266 6.48291 5.14906 5.70035 6.22777 6.13531 0 1.73205 7 0 1.825 8.12091 0.911975 2.22963 7.02522 3.97843 6.5958 4.59137 4.73734 7.07044 4.89493 3.94697 6.71479 6.10067 8.51093 10 9.20585 4.72751 10 7.58189 0 2.46651 9.10048 5.11424 0.872788 5.0457 4.80692 0 5.84442 5.57086 0 5.22834 5.16388 1.04261 6.18571 3.23217 5.03468 4.29287 3.34022 4.11212 5.36664 5.5 0.866025 10 6 0 10 0 3 10 0 4 10 0 3.49353 9.12542 2.83283 9.10254 8.04244 6.5 4.33013 10 8.28223 2.97069 8.10384 8.9411 0.996005 9.01776 5.50504 8.0081 6.2598 7.66464 7.2951 6.06585 7.19062 6.57168 5.87625 6.41084 6.79517 6.43326 5.04458 5.71319 5.01783 4.76395 5.03131 4.90558 9.34837 2.51509 10 9.1013 1.5859 10 2.56034 8.51697 10 0 4.5 9.13398 0.866025 4.5 10 0 5 10 8.49891 0 9.18827 1.69204 10 8.00442 2.5388 10 7.50529 10 8 7 9.2537 8.50669 6.70148 8.01691 1.68149 10 4.42914 10 4.77166 5.15078 6.94785 6.27539 5.68742 7.44302 5.27497 0 0.794264 8.50089 0 0.867791 7.51015 5.0022 3.47468 10 0 8.0177 4.6901 0 9.09918 4.58999 2.32171 3.73926 5.78189 1.8826 3.05867 4.62012 3.06317 2.38402 8.94203 2.83138 1.77005 7.66879 3.60431 1.86448 8.32956 7.5 2.59808 10 0 2 3 3.52524 5.88111 7.8229 0 2.96214 8.21934 9.08659 10 7.60415 10 10 7 9.07152 10 6.62861 4.17814 0.866025 4.67126 0 1 3 2.41225 5.5 3.9649 0 3.99065 8.2314 1.6492 1.84729 10 3.25028 10 6.97361 4.04091 10 7.30987 3.72705 8.7303 7.65022 3.97998 9.17053 6.84252 1.96753 1.94948 4.63195 1.64494 2.97587 3.65798 3.12119 4.35353 7.39927 3.30038 3.60992 6.4421 3.20538 4.67384 6.27968 6.75198 4.62164 7.12649 6.22209 4.7713 8.07025 5.38961 4.57574 7.15308 9.20518 5.50258 6.68207 9.22291 6.5014 6.68917 8.47267 6.07011 6.38907 2.57219 10 4.02887 1.64371 10 3.65748 2.21797 9.33108 3.88719 1.79665 10 4.70607 5.47462 7.28665 8.27015 5.46501 7.13354 9.20899 4.05306 7.61039 8.37267 3.88396 8.03241 9.1852 2.77229 1.74621 4.10891 2.46419 0.939117 5.16498 1.60817 5 3.64327 4.64238 1.73205 4.85695 5.63023 1.79327 5.25209 5.11312 2.61051 5.04525 5.24489 2.90366 6.08578 0 7.50056 7.35385 0 7 6.4641 2.35987 3.42804 7.14407 2.04632 2.3454 7.84453 3.35544 10 7.92635 2.39248 2.52076 3.95699 8.32573 8.09898 6.33029 10 0.672704 7.66671 10 1.50353 7.76945 3.4521 0 9.10461 0 0.648837 9.31995 0 0 9 0.819102 0 8.51284 9.26576 6.49955 8.34933 4.64238 0 4.85695 3.90523 0 5.46601 2.53072 10 6.67827 3.00374 9.03518 6.55006 0.900072 4.4862 6.12955 4.24813 5.52942 10 0.746856 2.87603 5.078 4.32989 4.02289 5.69288 10 6.50048 9.2746 7.53935 0 6.88088 7.0399 0.829089 5.81596 7.42781 0 5.97113 6.64359 0 6.55296 0 6.5 7.33013 0 9.32564 7.47107 0 8.48973 7.41868 4.08578 4.44466 4.63431 9.06507 5.38829 10 10 5 10 1.06029 3.5955 6.65736 3.43556 7.9886 10 2.58719 7.50175 10 0 6 8.2131 7 3.4641 10 3.91476 10 6.37575 2.24242 7.4561 6.12874 2.31402 8.50594 3.92561 5.8314 9.13167 5.33256 5 1.73205 10 4.6438 6.29769 4.85752 6.81136 5.81051 5.72454 10 6 7 4.53678 10 9.11799 6.5 0.866025 10 1.97171 0 4.91711 10 8 10 9.24381 7.42835 10 6.51329 6.25569 7.98313 0 9.33206 9.32573 9.19592 4.5 6.67837 0 7.5 5.59808 0 7 4.73205 5.52994 5.04299 5.21197 1.79398 2.56491 6.18697 0.831938 2.38434 6.05269 0.936195 3.99481 9.0667 4.40729 4.41058 10 6.62891 10 7.45429 0 5 3 9.11603 3.49181 10 8.01116 3.46709 10 0.652902 0.66826 10 0.66643 0 9.33703 0 0 10 8.51644 2.55898 10 10 7 10 7.78998 4.58403 7.09688 4.65504 5.97701 7.17736 5.53484 6.49538 7.10916 0 4.96177 4.71876 0 4 3 6.62085 7.29888 9.0454 1.54466 8.03784 3.61786 6.07373 2.68045 5.42949 0 6 6.4641 0 5 6.4641 0 5.48791 5.59586 3.21847 0 6.06187 7.48692 6.08101 10 5.35762 10 5.14305 1.46743 0 9.16268 1.81176 0 8.10108 10 2.49649 7.79224 9.18808 2.48033 6.67523 0 1.73205 6 0 2.5932 6.54302 10 3.49942 9.29601 4.02455 1.76187 10 3.44236 6.99495 10 3.72734 7.10155 9.10263 4.21985 6.48452 10 4.51545 2.61854 10 9.10203 0 8.3997 3.71391 1.73205 4.48556 7.99715 5.24786 10 3.66022 3.44296 4.46409 4.62924 3.47826 4.8517 0.789638 10 8.47462 5.58064 9.15602 10 5.26907 8.03228 10 2.59105 3.44136 4.03642 2.44172 4.5063 3.97669 3.97305 9.29612 4.58922 3.50066 10 4.40027 0 6 10 0 5.5 9.13398 0 3.46 7.21105 10 6 10 9.16253 10 8.5589 1.73205 6 10 1.73205 5 10 2.21945 8.10284 8.11325 4.79409 7.66602 7.21933 10 0.892048 8.51395 9.3321 0 9.3262 2.59519 4.48701 10 6.00979 5.2018 10 0 5.5 7.33013 3.87063 0 8.22565 3.72889 10 5.40118 5.57193 3.4747 5.22877 7.4983 3.49741 5.99932 8.39709 3.98721 6.35884 0.863798 10 7.48789 6.9888 6.92744 10 7.48283 7.72982 10 7.36554 6.5231 7.68785 3.20037 4.16433 4.28015 0.922825 10 5.37688 6.04235 4.01281 6.49668 3.22978 2.58408 4.29191 5.01619 6.85455 10 4.82167 6.03808 10 8.00618 8.48934 10 2.26669 2.94896 9.1675 0 10 5 6.53108 9.24833 10 0 10 3 5.09335 4.30788 5.03734 2.71517 0.792449 7.76386 6.83706 6.05925 6.87174 2.477 6.84594 7.18602 1.37248 5.3772 9.00182 2.58177 3.40943 10 4.35419 0 7.4577 7.31789 5.07835 5.92716 6.9253 4.30947 5.77012 0 8.49153 5.54856 0 4.15565 6.55169 0.862677 3.669 5.61661 4.27677 7.4651 10 1.43844 0.84181 10 7.67614 5.85167 6.07046 0 9.0989 8.40085 1 10 10 2 10 10 0 10 9 4.56779 3.78904 9.16374 2 0 10 10 1.50474 9.26678 0 10 8 8.29906 5.04927 6.31963 0 2.59588 5.56351 4.58146 9.11442 10 4 10 10 6.01481 4.29635 5.40593 10 7.50305 9.27221 3 10 10 6 10 10 6.5 10 9.13398 7 10 10 4.2039 10 8.21615 2.49217 0 5.7156 5 10 10 3.18953 1.74791 10 6.51042 3.5076 5.60417 0 4.34808 5.61149 6.03692 10 8.26155 0 10 10 5.50026 8.36433 5.2001 10 0 8 10 5 7 10 1.97939 8.54245 9 10 10 8.19895 7.65755 7.59333 9.3342 10 9.34089 10 9.32568 9.35637 8.35629 0 6.34252 0 3.89706 4.63842 0 0 8 2.45967 0 7.38811 0.866025 5.5 10 5.83284 2.07016 6.2223 6.28365 6.56427 5.51346 2.90889 0 8.17488 0 2.51866 7.43103 1 0 10 0 1 10 0 0 7 0 2 10 7.92022 6.92237 10 7.70157 4.38614 6.08063 3 0 10 4 0 10 3.18981 7.74381 5.37717 6.16127 8.55111 10 7 0 10 3.98942 7.52337 4.59577 4.15841 3.4427 10 7.5 4.33013 10 8.41467 7.66795 10 5.72517 0 6.21169 9.20741 7.50569 6.68297 5 0 10 6.09519 0.915048 5.43808 0 6 4.73205 5.51114 10 9.13359 0 3.42849 6.11234 5.0042 0 6.82955 10 0 9 10 2 7 10 0 7 10 2 10 9 0 10 7.45144 10 7.59556 10 3 10 8 0 10 10 4 10 8 10 10 10 10 10 10 10 9 10 10 8 10 7 7 2.52169 2.29878 10 6.49934 0 5.59973 6.88816 2.81494 5.75527 0 3.40042 5.27607 2.49876 0 6.54191 6.48275 7.80315 10 6.72192 1.86891 5.68877 </DataArray>
				<DataArray type="Float64" Name="unique vertices" format="ascii" NumberOfComponents="1" RangeMin="3" RangeMax="1083">427 423 917 1036 328 320 920 1020 907 974 976 1061 475 473 943 1021 142 412 413 984 784 787 757 875 861 527 918 965 5 136 742 144 952 979 980 1038 503 532 426 988 1030 740 836 92 690 405 539 873 1026 816 815 814 914 720 719 898 901 511 471 903 941 431 432 397 906 678 749 840 1014 341 899 951 1052 91 673 73 890 945 961 94 683 737 677 884 536 1022 1056 788 1080 1028 402 456 444 989 985 1019 82 607 736 894 1012 878 1082 1083 843 1075 1079 904 716 938 958 782 1068 496 905 947 953 326 322 346 851 403 841 853 1004 519 462 865 1050 630 610 619 978 970 713 1042 1057 837 93 739 396 666 143 449 679 438 862 885 1031 1035 425 434 1078 881 924 759 839 799 863 422 419 754 304 66 67 472 311 469 857 489 498 877 670 745 97 746 440 477 445 324 876 852 339 879 880 968 1060 135 735 733 1074 767 954 411 691 942 392 838 393 856 672 668 317 88 925 515 680 698 858 76 625 738 971 874 805 886 932 406 429 889 844 936 1023 929 1024 948 973 501 870 1005 476 930 474 458 959 981 1011 1043 90 305 676 685 955 1034 923 768 778 860 891 995 1018 507 493 987 902 969 517 933 119 120 872 887 926 983 777 1046 1053 1065 734 868 854 910 1049 332 766 826 1007 797 763 939 437 433 963 455 608 109 10 525 994 487 484 439 460 319 468 1033 895 612 944 1008 1039 822 781 962 1016 664 882 1076 775 864 921 1077 495 1048 845 1081 883 908 992 325 65 762 956 312 338 127 84 900 779 993 849 846 919 1069 454 896 946 909 1006 1064 1044 1054 609 752 409 134 133 855 315 447 307 633 623 1015 744 795 928 81 450 708 686 448 687 118 665 765 726 727 999 842 867 866 1029 87 621 629 912 1037 342 345 911 499 634 627 614 669 528 506 310 751 628 631 615 442 117 451 616 821 831 931 695 694 986 786 789 850 302 330 693 750 404 131 1032 776 991 466 148 124 123 689 972 514 1071 977 1001 817 818 1066 832 830 457 459 521 682 453 122 401 333 334 77 755 482 69 888 834 667 688 497 722 674 893 1013 937 1058 1063 483 98 997 729 316 6 64 732 99 769 728 485 336 329 871 982 892 791 1059 1009 1072 913 1003 1062 743 748 773 71 72 758 323 967 1073 927 950 802 964 770 804 803 807 960 717 715 1000 1025 337 792 771 611 624 408 675 139 414 990 132 395 335 859 1010 529 975 1002 617 415 761 129 416 718 684 721 783 470 113 897 522 478 724 508 327 1017 793 760 480 833 820 79 309 446 398 116 452 916 671 741 714 712 825 949 996 922 500 343 95 464 509 443 407 11 513 115 1027 848 934 702 96 966 780 810 706 705 704 428 516 68 399 418 618 756 699 697 613 479 523 1040 535 481 410 796 512 812 808 301 465 526 790 774 753 70 121 681 730 114 321 494 490 847 869 606 400 491 502 707 435 318 809 798 764 314 531 533 1070 794 313 957 806 505 504 534 1067 89 467 7 823 1055 940 915 998 488 424 828 827 723 725 1051 524 463 835 692 108 107 85 1041 152 626 86 772 700 461 105 824 622 106 103 306 102 331 436 104 492 811 703 340 9 813 137 80 632 100 1047 308 620 128 701 140 420 441 1045 819 430 696 153 126 141 125 518 829 151 150 935 538 147 785 530 510 520 394 747 149 731 711 303 710 417 138 83 3 110 145 344 111 146 112 101 8 75 74 78 486 130 801 709 421 537 800 </DataArray>
			</PointData>
			<Points>