<?xml version="1.0"?>
<VTKFile type="PolyData" version="1.0" byte_order="LittleEndian" header_type="UInt32" compressor="vtkZLibDataCompressor">
	<PolyData>
		<Piece NumberOfPoints="11" NumberOfLines="10">
			<PointData>
				<DataArray type="Float64" Name="unique vertices" format="ascii" NumberOfComponents="1" RangeMin="1" RangeMax="29">1 21 22 23 24 25 26 27 28 29 2 </DataArray>
				<DataArray type="Float64" Name="points" format="ascii" NumberOfComponents="3" RangeMin="0" RangeMax="10">10 0 0 10 1 0 10 2 0 10 3 0 10 4 0 10 5 0 10 6 0 10 7 0 10 8 0 10 9 0 10 10 0 </DataArray>
			</PointData>
			<Points>
				<DataArray type="Float64" Name="Points" format="ascii" NumberOfComponents="3" RangeMin="0" RangeMax="10">10 0 0 10 1 0 10 2 0 10 3 0 10 4 0 10 5 0 10 6 0 10 7 0 10 8 0 10 9 0 10 10 0 </DataArray>
			</Points>
			<CellData>
				<DataArray type="Float64" Name="edges" format="ascii" NumberOfComponents="2" RangeMin="0" RangeMax="10">0 1 1 2 2 3 3 4 4 5 5 6 6 7 7 8 8 9 9 10 </DataArray>
			</CellData>
			<Lines>
				<DataArray type="Int64" Name="connectivity" format="ascii" RangeMin="0" RangeMax="10">0 1 1 2 2 3 3 4 4 5 5 6 6 7 7 8 8 9 9 10 </DataArray>
				<DataArray type="Int64" Name="offsets" format="ascii" RangeMin="0" RangeMax="11">2 4 6 8 10 12 14 16 18 20 </DataArray>
			</Lines>
		</Piece>
	</PolyData>
</VTKFile>
