<?xml version="1.0"?>
<VTKFile type="PolyData" version="1.0" byte_order="LittleEndian" header_type="UInt32" compressor="vtkZLibDataCompressor">
	<PolyData>
		<Piece NumberOfPoints="77" NumberOfPolys="121">
			<PointData>
				<DataArray type="Float64" Name="unique vertices" format="ascii" NumberOfComponents="1" RangeMin="6" RangeMax="346">7 73 90 85 86 301 100 101 302 103 104 303 67 66 304 72 305 102 306 108 9 307 8 308 105 309 65 310 106 107 311 312 88 89 313 87 314 315 6 74 316 317 70 69 318 319 68 320 75 321 71 322 323 324 64 325 326 327 328 329 330 331 332 333 334 335 336 346 337 338 339 340 341 342 343 344 345 </DataArray>
				<DataArray type="Float64" Name="points" format="ascii" NumberOfComponents="3" RangeMin="0" RangeMax="10">0 10 3 0.768544 10 3.30742 0 10 4 0 10 9 0 10 8 0.789638 10 8.47462 9 10 10 8 10 10 8.51093 10 9.20585 6 10 10 5 10 10 5.51114 10 9.13359 6.28609 10 5.51444 7.21457 10 5.88583 6.41632 10 6.50328 1.64371 10 3.65748 0.847534 10 4.33299 7 10 10 6.5 10 9.13398 1 10 10 0 10 10 0.659629 10 9.31039 10 10 10 9.3342 10 9.34089 4 10 10 4.53678 10 9.11799 8.14305 10 6.25722 7.33929 10 6.80388 3 10 10 2 10 10 2.51839 10 9.33986 3.45905 10 9.03028 0 10 6 0 10 5 0.922825 10 5.37688 0 10 7 0.863798 10 7.48789 1.58736 10 9.09579 10 10 7 10 10 8 9.08659 10 7.60415 0.923251 10 6.44787 3.50066 10 4.40027 4.42914 10 4.77166 3.72889 10 5.40118 7.50937 10 9.13849 5.35762 10 5.14305 4.60728 10 5.76428 10 10 9 9.16253 10 8.5589 2.57219 10 4.02887 2.78843 10 5.07292 1.79665 10 4.70607 5.49395 10 6.14738 9.07152 10 6.62861 8.19197 10 7.19794 1.98168 10 5.89375 3.91476 10 6.37575 4.72745 10 6.75803 4.04091 10 7.30987 4.72751 10 7.58189 4.2039 10 8.21615 1.76334 10 6.99246 1.69204 10 8.00442 2.5388 10 7.50529 2.53072 10 6.67827 3.25028 10 6.97361 3.04414 10 6.06164 3.35544 10 7.92635 2.54281 10 8.49243 5.57592 10 7.2845 6.03692 10 8.26155 5.08787 10 8.27583 7.02902 10 8.29968 6.62891 10 7.45429 7.45144 10 7.59556 8.11991 10 8.22939 </DataArray>
			</PointData>
			<Points>
				<DataArray type="Float64" Name="Points" format="ascii" NumberOfComponents="3" RangeMin="0" RangeMax="10">0 10 3 0.768543991081869 10 3.30741759643275 0 10 4 0 10 9 0 10 8 0.789638358528271 10 8.47461979087785 9 10 10 8 10 10 8.51093140933531 10 9.20585160333102 6 10 10 5 10 10 5.51113852913601 10 9.13358677221482 6.28609323645896 10 5.51443729458358 7.21456992734422 10 5.88582797093769 6.41631668770433 10 6.50328441672498 1.64370978203266 10 3.65748391281307 0.84753361202504 10 4.33298888911163 7 10 10 6.5 10 9.13397459621556 1 10 10 0 10 10 0.659629369655512 10 9.31039379791256 10 10 10 9.33420280238588 10 9.34088647610041 4 10 10 4.53677522211924 10 9.11799340834487 8.14304661822948 10 6.25721864729179 7.33929344845939 10 6.80388041576837 3 10 10 2 10 10 2.51838928962875 10 9.33986388584431 3.45904796881007 10 9.03028010217546 0 10 6 0 10 5 0.922824527236728 10 5.37687586468108 0 10 7 0.863798444845395 10 7.48788547633771 1.58735715623276 10 9.09578617297388 10 10 7 10 10 8 9.0865949630768 10 7.6041491465403 0.923251246236896 10 6.44787472441361 3.50066316380318 10 4.40026526552127 4.42913985468844 10 4.77165594187538 3.72888823883053 10 5.40118220399562 7.50937482706181 10 9.13848794363568 5.3576165455737 10 5.14304661822948 4.60728450356346 10 5.76427710748895 10 10 9 9.1625281654981 10 8.55889857405115 2.57218647291792 10 4.02887458916717 2.78843109201867 10 5.07292108937193 1.79664542661127 10 4.70606829880997 5.49394492154616 10 6.14737833971208 9.07152330911474 10 6.6286093236459 8.19197331039739 10 7.19793662449268 1.98168312801278 10 5.89374986811693 3.91475574614143 10 6.37574675481066 4.72745309810529 10 6.75803225852583 4.0409087033909 10 7.30986918902415 4.7275115718904 10 7.58188621781091 4.20389920851961 10 8.21614663498275 1.76334219074883 10 6.99246260381485 1.69203959383311 10 8.00441649993278 2.53879815546464 10 7.50528981521932 2.53072064291791 10 6.67827060853506 3.25028386457212 10 6.97360836742623 3.04413779916369 10 6.06164356608614 3.3554369517666 10 7.92635142395824 2.54280516597531 10 8.49242818589477 5.57592056967967 10 7.28450343621464 6.03691999266165 10 8.26155318498507 5.08787073269264 10 8.2758323728004 7.02901934291834 10 8.29968229612012 6.62891207227016 10 7.45429291413296 7.45143696196844 10 7.59555753641136 8.11991193092084 10 8.22939022394716 </DataArray>
			</Points>
			<CellData />
			<Polys>
				<DataArray type="Int64" Name="connectivity" format="ascii" RangeMin="0" RangeMax="76">0 1 2 3 4 5 6 7 8 9 10 11 12 13 14 1 15 16 17 9 18 19 20 21 22 6 23 10 24 25 13 26 27 28 29 30 24 28 31 32 33 34 4 35 36 29 19 37 38 39 40 35 32 41 42 43 44 7 17 45 33 2 16 20 3 21 43 46 47 48 22 23 39 48 49 50 42 51 15 50 52 46 12 53 54 38 40 26 54 55 27 26 55 52 50 51 52 51 56 44 43 47 44 47 57 57 47 58 57 58 59 59 58 60 59 60 61 35 41 36 36 41 62 62 41 56 5 4 36 5 36 63 63 36 62 63 62 64 5 63 37 46 53 47 41 32 34 41 34 56 34 33 16 64 62 65 64 65 66 66 65 67 66 67 57 67 65 56 64 66 68 68 66 59 64 68 69 64 69 63 69 68 31 16 15 52 16 52 34 58 47 53 58 53 70 58 70 60 53 12 14 42 44 51 1 16 2 65 62 56 57 59 66 44 57 67 70 53 14 59 61 68 9 11 18 18 11 71 71 11 72 71 72 70 18 71 73 73 71 74 73 74 75 11 10 25 11 25 72 51 44 67 63 69 37 8 7 45 8 45 76 76 45 73 76 73 75 8 76 49 23 6 8 23 8 49 28 30 31 31 30 69 17 18 45 45 18 73 30 29 37 30 37 69 56 51 67 37 19 21 37 21 5 40 39 49 40 49 76 25 24 31 25 31 61 52 56 34 61 60 72 74 71 70 14 13 27 14 27 74 60 70 72 70 14 74 55 54 40 75 74 27 72 25 61 76 75 55 27 55 75 61 31 68 76 55 40 23 49 48 5 21 3 </DataArray>
				<DataArray type="Int64" Name="offsets" format="ascii" RangeMin="0" RangeMax="77">3 6 9 12 15 18 21 24 27 30 33 36 39 42 45 48 51 54 57 60 63 66 69 72 75 78 81 84 87 90 93 96 99 102 105 108 111 114 117 120 123 126 129 132 135 138 141 144 147 150 153 156 159 162 165 168 171 174 177 180 183 186 189 192 195 198 201 204 207 210 213 216 219 222 225 228 231 234 237 240 243 246 249 252 255 258 261 264 267 270 273 276 279 282 285 288 291 294 297 300 303 306 309 312 315 318 321 324 327 330 333 336 339 342 345 348 351 354 357 360 363 </DataArray>
			</Polys>
		</Piece>
	</PolyData>
</VTKFile>
