<?xml version="1.0"?>
<VTKFile type="PolyData" version="1.0" byte_order="LittleEndian" header_type="UInt32" compressor="vtkZLibDataCompressor">
	<PolyData>
		<Piece NumberOfPoints="142" NumberOfPolys="242">
			<PointData>
				<DataArray type="Float64" Name="unique vertices" format="ascii" NumberOfComponents="1" RangeMin="8" RangeMax="539">124 125 438 152 151 539 123 439 119 120 440 121 122 441 117 8 442 11 153 443 150 149 444 445 148 147 446 108 9 447 118 448 126 449 146 145 450 116 451 115 452 453 107 454 10 109 455 456 110 111 457 458 459 101 102 460 104 105 461 114 462 463 112 464 103 465 466 467 100 468 106 469 113 470 471 472 473 474 475 476 477 478 479 480 481 482 483 484 485 486 487 488 489 490 491 492 493 494 495 496 497 498 499 500 501 502 503 504 505 506 507 508 509 510 511 512 513 514 515 516 517 518 519 520 521 522 523 524 525 526 527 528 529 530 531 532 533 534 535 536 537 538 </DataArray>
				<DataArray type="Float64" Name="points" format="ascii" NumberOfComponents="3" RangeMin="0" RangeMax="10">0 3 10 0 2 10 0.844288 2.46112 10 2 0 10 3 0 10 2.47918 1.07796 10 0 4 10 0.863061 3.49004 10 0 8 10 0 7 10 0.866025 7.5 10 0 6 10 0 5 10 0.866025 5.5 10 10 9 10 10 10 10 9.31474 9.33762 10 0 0 10 1 0 10 0.652902 0.66826 10 4 0 10 5 0 10 4.5 0.866025 10 0.866025 6.5 10 6 0 10 7 0 10 6.5 0.866025 10 1 10 10 0 10 10 0.66238 9.31474 10 0 9 10 0.798256 8.49496 10 0 1 10 0.781683 1.47221 10 8 0 10 9 0 10 8.48394 0.789018 10 10 8 10 9.08297 8.46222 10 10 7 10 9.24381 7.42835 10 0.866025 4.5 10 2 10 10 1.5907 9.1037 10 10 0 10 10 1 10 9.3158 0.662177 10 3.52491 0.901928 10 10 2 10 10 3 10 9.34837 2.51509 10 7.49822 0.855431 10 9.1013 1.5859 10 8 10 10 7 10 10 7.5 9.2484 10 5 10 10 4 10 10 4.58146 9.11442 10 10 6 10 9.24685 6.48879 10 1.43844 0.84181 10 10 4 10 9.11603 3.49181 10 6 10 10 5.58064 9.15602 10 5.5 0.866025 10 6.53108 9.24833 10 9 10 10 8.49039 9.25002 10 3 10 10 3.47817 9.06217 10 10 5 10 9.06507 5.38829 10 9.32016 4.45613 10 2.51523 9.34842 10 6 1.73205 10 7 1.73205 10 6.5 2.59808 10 1.68942 8.02053 10 1.73205 7 10 2.58719 7.50175 10 4.02455 1.76187 10 5 1.73205 10 4.51545 2.61854 10 8.01691 1.68149 10 7.5 2.59808 10 1.70923 2.92545 10 1.6492 1.84729 10 2.52169 2.29878 10 1.72758 3.97865 10 2.58177 3.40943 10 5.5 2.59808 10 1.73205 5 10 2.59519 4.48701 10 3.18953 1.74791 10 3.47176 2.74942 10 1.73205 6 10 2.59808 5.5 10 2.59808 6.5 10 5.0022 3.47468 10 6 3.4641 10 5.49163 4.33739 10 4.40729 4.41058 10 5.08031 5.24974 10 6.00979 5.2018 10 5.55525 6.06456 10 4.82167 6.03808 10 5.01619 6.85455 10 3.45993 4.98865 10 3.44591 3.93525 10 7 3.4641 10 8.01116 3.46709 10 7.5 4.33013 10 8.49045 4.38806 10 7.99715 5.24786 10 8.51644 2.55898 10 6.5 4.33013 10 7 5.19615 10 7.48692 6.08101 10 8.41376 6.17572 10 7.92022 6.92237 10 8.65617 6.93791 10 8.41467 7.66795 10 2.56034 8.51697 10 3.43556 7.9886 10 3.44236 6.99495 10 4.27677 7.4651 10 4.21102 8.34228 10 5.26907 8.03228 10 6.5 6.06218 10 3.43995 6.00149 10 4.24813 5.52942 10 4.15841 3.4427 10 6.9888 6.92744 10 5.96202 6.95392 10 7.48283 7.72982 10 8.00618 8.48934 10 4.21985 6.48452 10 7.02746 8.52157 10 6.48275 7.80315 10 6.16127 8.55111 10 </DataArray>
			</PointData>
			<Points>
				<DataArray type="Float64" Name="Points" format="ascii" NumberOfComponents="3" RangeMin="0" RangeMax="10">0 3 10 0 2 10 0.844287785473156 2.46112047636154 10 2 0 10 3 0 10 2.47917527031308 1.07795551372106 10 0 4 10 0.863060723269434 3.49004251415244 10 0 8 10 0 7 10 0.866025403784439 7.5 10 0 6 10 0 5 10 0.866025403784439 5.5 10 10 9 10 10 10 10 9.31474364905389 9.33762023679042 10 0 0 10 1 0 10 0.652902087810491 0.668259479266511 10 4 0 10 5 0 10 4.5 0.866025403784439 10 0.866025403784439 6.5 10 6 0 10 7 0 10 6.5 0.866025403784439 10 1 10 10 0 10 10 0.662379763209582 9.31474364905389 10 0 9 10 0.798256245583836 8.49496365601197 10 0 1 10 0.78168345192173 1.47221449178888 10 8 0 10 9 0 10 8.48393893265455 0.789018008279726 10 10 8 10 9.08297238722144 8.46222384591712 10 10 7 10 9.24381394673571 7.42834542354188 10 0.866025403784439 4.5 10 2 10 10 1.59070348242365 9.10370036733243 10 10 0 10 10 1 10 9.31580392672901 0.662176613040387 10 3.52490547045605 0.901927662193671 10 10 2 10 10 3 10 9.34837054166078 2.51509280852169 10 7.49822299907585 0.855431384670167 10 9.10129714720449 1.58589643027356 10 8 10 10 7 10 10 7.5 9.24839684279443 10 5 10 10 4 10 10 4.58146031193511 9.11441944626412 10 10 6 10 9.24685445352786 6.48878892010034 10 1.438443734968 0.841810106848774 10 10 4 10 9.11602926295422 3.49181120172198 10 6 10 10 5.58064316507227 9.15601955354133 10 5.5 0.866025403784439 10 6.53108065689826 9.24833196070515 10 9 10 10 8.49038749237142 9.25002508601409 10 3 10 10 3.47817079986752 9.06216535069635 10 10 5 10 9.06507146431725 5.38828751661088 10 9.32016422728069 4.45612830593713 10 2.51522908890839 9.34842341782135 10 6 1.73205080756888 10 7 1.73205080756888 10 6.5 2.59807621135332 10 1.68941832074727 8.02053206299584 10 1.73205080756888 7 10 2.58718878617583 7.50175412714477 10 4.02454554569133 1.7618713114698 10 5 1.73205080756888 10 4.51545219052446 2.6185399763895 10 8.01690892877846 1.68149403890527 10 7.5 2.59807621135332 10 1.70923195803937 2.92545291084999 10 1.6492049244204 1.84729404802367 10 2.52169046922604 2.29878169043777 10 1.72758093287875 3.97865331390181 10 2.5817730135405 3.40942891523361 10 5.5 2.59807621135332 10 1.73205080756888 5 10 2.59518828815278 4.48701362423305 10 3.18952547348597 1.74791201003155 10 3.47176370884018 2.74941507719653 10 1.73205080756888 6 10 2.59807621135332 5.5 10 2.59807621135332 6.5 10 5.00220283739015 3.47468505842209 10 6 3.46410161513775 10 5.49163046288157 4.33738979323889 10 4.40729128114971 4.41057621135332 10 5.08031376832293 5.2497411613302 10 6.00978709261073 5.20179855140583 10 5.55524872249513 6.06456308653789 10 4.82167421983235 6.03808391872578 10 5.01618525559204 6.8545517818368 10 3.45993003031205 4.98864621388863 10 3.44591372052588 3.93525433762746 10 7 3.46410161513775 10 8.01116454968463 3.46709314720961 10 7.5 4.33012701892219 10 8.49045139426904 4.38806092536621 10 7.99715364042869 5.24786393458516 10 8.51643679495509 2.55898163707312 10 6.5 4.33012701892219 10 7 5.19615242270663 10 7.48691537703369 6.08100661080504 10 8.41375567248678 6.17572494630221 10 7.92021756459376 6.92237137784136 10 8.65616526395188 6.93791042270614 10 8.41466678664411 7.66795341086598 10 2.56034444094013 8.51696555656087 10 3.43556039017141 7.98859852847785 10 3.442357995209 6.99495337770265 10 4.27676627230832 7.46510087208776 10 4.21101502696441 8.34228123462558 10 5.2690715107374 8.03228327353903 10 6.5 6.06217782649107 10 3.43995053827671 6.00148866140819 10 4.24813063345962 5.5294217320416 10 4.15841447355116 3.44270260655018 10 6.98880399466185 6.92743692712173 10 5.96201905283833 6.95392465101802 10 7.48283310460253 7.72981504627268 10 8.00618476430619 8.48934195710425 10 4.21985144257306 6.48451634561549 10 7.02746493300516 8.52156644061046 10 6.48275425062036 7.80315224529467 10 6.16126955724571 8.55110585458318 10 </DataArray>
			</Points>
			<CellData />
			<Polys>
				<DataArray type="Int64" Name="connectivity" format="ascii" RangeMin="0" RangeMax="141">0 1 2 3 4 5 6 0 7 8 9 10 11 12 13 14 15 16 17 18 19 20 21 22 9 11 23 24 25 26 27 28 29 30 8 31 1 32 33 34 35 36 37 14 38 28 30 29 39 37 40 32 17 19 12 6 41 42 27 43 44 45 46 4 20 47 48 49 50 25 34 51 45 48 52 53 54 55 56 57 58 59 39 60 18 3 61 49 62 63 64 56 65 21 24 66 54 64 67 68 53 69 57 70 71 35 44 46 72 59 73 15 68 16 62 72 74 70 42 75 66 24 26 66 26 76 76 26 77 76 77 78 31 8 10 31 10 79 79 10 80 79 80 81 31 79 43 10 9 23 10 23 80 19 18 61 19 61 33 47 20 22 47 22 82 82 22 83 82 83 84 83 22 66 66 22 21 26 25 51 26 51 77 77 51 85 77 85 86 7 0 2 7 2 87 87 2 88 87 88 89 7 87 90 90 87 91 66 76 83 83 76 92 7 90 41 7 41 6 41 90 93 93 90 94 41 93 13 41 13 12 47 82 95 95 82 96 96 82 84 23 11 13 23 13 97 97 13 93 97 93 98 23 97 80 80 97 99 80 99 81 33 32 19 2 1 33 2 33 88 61 3 5 61 5 88 51 34 36 51 36 85 5 4 47 5 47 95 84 83 92 84 92 100 100 92 101 100 101 102 100 102 103 103 102 104 104 102 105 104 105 106 104 106 107 107 106 108 95 96 89 93 94 98 98 94 109 109 94 110 109 110 103 89 88 5 89 5 95 110 94 91 91 94 90 88 33 61 110 91 96 77 86 78 78 86 111 111 86 112 111 112 113 113 112 114 113 114 115 115 114 73 87 89 91 91 89 96 86 85 116 86 116 112 78 111 101 101 111 117 117 111 113 117 113 118 118 113 115 118 115 119 119 115 120 119 120 121 121 120 122 121 122 123 79 81 124 124 81 125 125 81 126 125 126 127 125 127 128 128 127 129 97 98 99 106 105 130 130 105 118 118 105 117 78 101 92 78 92 76 85 36 52 79 124 43 98 109 131 131 109 132 84 100 133 133 100 103 84 133 96 120 115 73 114 112 63 118 119 130 130 119 134 130 134 135 126 81 99 124 125 71 121 123 136 136 123 137 121 136 134 119 121 134 126 99 131 126 131 138 138 131 132 126 138 127 127 138 108 132 109 103 14 16 38 38 16 69 136 137 139 136 139 140 55 54 67 55 67 139 74 72 73 74 73 114 39 40 60 60 40 122 125 128 71 75 42 43 75 43 124 65 56 58 65 58 129 59 60 73 73 60 120 58 57 71 58 71 128 62 74 63 63 74 114 105 102 117 117 102 101 133 103 110 40 37 38 40 38 123 112 116 63 116 85 52 43 27 29 43 29 31 52 48 50 52 50 116 50 49 63 50 63 116 98 131 99 137 123 38 70 75 71 71 75 124 46 45 52 46 52 36 68 69 16 96 133 110 67 64 65 67 65 141 141 65 129 67 141 139 69 53 55 69 55 137 128 129 58 104 107 132 140 139 141 130 135 106 129 127 108 139 137 55 136 140 134 107 108 138 135 134 140 103 104 132 108 106 135 138 132 107 108 135 129 135 140 129 38 69 137 141 129 140 120 60 122 46 36 35 31 29 30 40 123 122 </DataArray>
				<DataArray type="Int64" Name="offsets" format="ascii" RangeMin="0" RangeMax="142">3 6 9 12 15 18 21 24 27 30 33 36 39 42 45 48 51 54 57 60 63 66 69 72 75 78 81 84 87 90 93 96 99 102 105 108 111 114 117 120 123 126 129 132 135 138 141 144 147 150 153 156 159 162 165 168 171 174 177 180 183 186 189 192 195 198 201 204 207 210 213 216 219 222 225 228 231 234 237 240 243 246 249 252 255 258 261 264 267 270 273 276 279 282 285 288 291 294 297 300 303 306 309 312 315 318 321 324 327 330 333 336 339 342 345 348 351 354 357 360 363 366 369 372 375 378 381 384 387 390 393 396 399 402 405 408 411 414 417 420 423 426 429 432 435 438 441 444 447 450 453 456 459 462 465 468 471 474 477 480 483 486 489 492 495 498 501 504 507 510 513 516 519 522 525 528 531 534 537 540 543 546 549 552 555 558 561 564 567 570 573 576 579 582 585 588 591 594 597 600 603 606 609 612 615 618 621 624 627 630 633 636 639 642 645 648 651 654 657 660 663 666 669 672 675 678 681 684 687 690 693 696 699 702 705 708 711 714 717 720 723 726 </DataArray>
			</Polys>
		</Piece>
	</PolyData>
</VTKFile>
