<?xml version="1.0"?>
<VTKFile type="PolyData" version="1.0" byte_order="LittleEndian" header_type="UInt32" compressor="vtkZLibDataCompressor">
	<PolyData>
		<Piece NumberOfPoints="76" NumberOfPolys="119">
			<PointData>
				<DataArray type="Float64" Name="unique vertices" format="ascii" NumberOfComponents="1" RangeMin="0" RangeMax="391">3 127 35 128 347 132 133 348 130 131 349 135 136 350 34 18 19 351 20 352 13 14 353 33 354 15 16 355 46 0 356 357 17 358 134 359 360 361 32 362 1 363 30 364 12 365 5 366 45 367 31 368 369 129 370 371 372 373 374 375 376 377 378 379 380 381 382 383 384 385 386 387 388 389 390 391 </DataArray>
				<DataArray type="Float64" Name="points" format="ascii" NumberOfComponents="3" RangeMin="0" RangeMax="10">10 0 7 9.23146 0 6.69258 10 0 6 8.35629 0 6.34252 9.1527 0 5.63018 4.64238 0 4.85695 3.71391 0 4.48556 4.45381 0 4.10353 6.49934 0 5.59973 5.57086 0 5.22834 6.46207 0 4.48093 1.85695 0 3.74278 0.928477 0 3.37139 1.78453 0 2.82164 10 0 5 7 0 0 8 0 0 7.5 0 0.866025 9 0 0 8.50351 0 0.828531 2 0 0 3 0 0 2.48985 0 0.867385 10 0 4 9.13071 0 4.57123 4 0 0 5 0 0 4.5 0 0.866025 0 0 1 0 0 0 0.677216 0 0.658359 3.5 0 0.866025 6 0 0 6.5 0 0.866025 2.78543 0 4.11417 3.74201 0 3.49791 5.5 0 0.866025 2.67049 0 3.19668 10 0 3 9.05024 0 3.48654 10 0 0 9.32718 0 0.697784 10 0 1 5.34404 0 4.26052 1 0 0 1.49386 0 0.805153 0 0 3 0.910711 0 2.40054 0 0 2 0.833323 0 1.45262 10 0 2 9.31744 0 2.54008 9.09809 0 1.62915 7.42781 0 5.97113 8.1835 0 5.16737 7.2211 0 5.10276 2.96461 0 1.71325 3.97126 0 1.72586 3.37457 0 2.54198 8.00957 0 1.72106 1.87042 0 1.79616 2.53185 0 2.42398 4.98805 0 1.73085 4.40405 0 2.59277 6 0 1.73205 5.47003 0 2.59358 7 0 1.73205 7.5 0 2.59808 6.5 0 2.59808 6.99684 0 3.47667 7.99674 0 3.4542 7.53232 0 4.31955 8.38359 0 4.19934 4.90093 0 3.42587 5.9593 0 3.4726 8.49794 0 2.58562 </DataArray>
			</PointData>
			<Points>
				<DataArray type="Float64" Name="Points" format="ascii" NumberOfComponents="3" RangeMin="0" RangeMax="10">10 0 7 9.23145600891813 0 6.69258240356725 10 0 6 8.35629021796733 0 6.34251608718693 9.15269788794029 0 5.6301835480054 4.6423834544263 0 4.85695338177052 3.71390676354104 0 4.48556270541641 4.45381116379209 0 4.10353174277856 6.49933683619681 0 5.59973473447873 5.57086014531156 0 5.22834405812462 6.4620718572967 0 4.48093277186097 1.85695338177052 0 3.74278135270821 0.928476690885259 0 3.3713906763541 1.78453477068619 0 2.82163581251307 10 0 5 7 0 0 8 0 0 7.5 0 0.866025403784439 9 0 0 8.50351406477763 0 0.828531418257407 2 0 0 3 0 0 2.48984629600334 0 0.867385408311487 10 0 4 9.13070937277015 0 4.57122663566464 4 0 0 5 0 0 4.5 0 0.866025403784439 0 0 1 0 0 0 0.677215753862702 0 0.658359497205743 3.5 0 0.866025403784439 6 0 0 6.5 0 0.866025403784439 2.78543007265578 0 4.11417202906231 3.74201273336328 0 3.49791432277943 5.5 0 0.866025403784439 2.67049136175176 0 3.19667855930139 10 0 3 9.05024047358084 0 3.48653810567666 10 0 0 9.32717577793787 0 0.697784093570952 10 0 1 5.3440390588551 0 4.26051647122724 1 0 0 1.49385706625017 0 0.80515284281607 0 0 3 0.910711274051956 0 2.40054304153463 0 0 2 0.833322778835728 0 1.45261904537071 10 0 2 9.31743481395734 0 2.54008014090121 9.09808700211976 0 1.62914643444312 7.42781352708207 0 5.97112541083283 8.183501995667 0 5.16736695054439 7.22110400732698 0 5.10275928089677 2.96460898057997 0 1.71324764955521 3.971264209308 0 1.72585615512818 3.37457360076213 0 2.5419794207224 8.00956948555389 0 1.72105824722956 1.87042465140645 0 1.79615988855526 2.53185106122131 0 2.42398105033219 4.98805463489263 0 1.73084689279586 4.40405439423528 0 2.59276685433981 6 0 1.73205080756888 5.4700300149278 0 2.59358366911763 7 0 1.73205080756888 7.5 0 2.59807621135332 6.5 0 2.59807621135332 6.99683932144139 0 3.47666876121599 7.99674420871457 0 3.45420057628557 7.53231678727645 0 4.31955075365749 8.38358960767521 0 4.19934189079179 4.90093181835575 0 3.42586518946496 5.95929724064042 0 3.472598612701 8.49794431460099 0 2.58562150190513 </DataArray>
			</Points>
			<CellData />
			<Polys>
				<DataArray type="Int64" Name="connectivity" format="ascii" RangeMin="0" RangeMax="75">0 1 2 1 3 4 5 6 7 8 9 10 11 12 13 14 2 4 15 16 17 16 18 19 20 21 22 23 14 24 25 26 27 28 29 30 21 25 31 32 15 33 6 34 35 26 32 36 34 11 37 38 23 39 18 40 41 40 42 41 9 5 43 44 20 45 12 46 47 48 28 49 50 38 51 29 44 30 46 48 47 42 50 52 3 53 54 53 8 55 55 8 10 5 7 43 22 21 31 22 31 56 56 31 57 56 57 58 19 18 41 19 41 52 17 16 19 17 19 59 59 19 52 57 31 27 27 31 25 20 22 45 45 22 60 60 22 56 60 56 61 57 27 62 57 62 63 34 37 35 26 36 27 27 36 62 62 36 64 62 64 65 36 32 33 36 33 64 15 17 33 33 17 66 66 17 59 66 59 67 48 49 47 28 30 49 49 30 45 45 60 49 33 66 64 64 66 68 66 67 68 68 67 69 69 67 70 69 70 71 71 70 72 71 72 54 62 65 63 63 65 73 73 65 74 73 74 43 11 13 37 13 12 47 13 47 60 53 55 54 3 54 4 56 58 61 61 58 37 63 73 35 58 57 63 58 63 35 68 69 74 74 69 10 10 9 43 68 74 65 68 65 64 60 61 13 69 71 10 72 70 39 70 67 75 75 67 59 75 59 52 70 75 39 43 7 73 6 35 7 7 35 73 50 51 52 52 51 75 23 24 39 39 24 72 51 38 39 51 39 75 42 52 41 54 55 71 1 4 2 4 54 24 24 14 4 55 10 71 10 43 74 37 13 61 35 37 58 54 72 24 47 49 60 45 30 44 </DataArray>
				<DataArray type="Int64" Name="offsets" format="ascii" RangeMin="0" RangeMax="76">3 6 9 12 15 18 21 24 27 30 33 36 39 42 45 48 51 54 57 60 63 66 69 72 75 78 81 84 87 90 93 96 99 102 105 108 111 114 117 120 123 126 129 132 135 138 141 144 147 150 153 156 159 162 165 168 171 174 177 180 183 186 189 192 195 198 201 204 207 210 213 216 219 222 225 228 231 234 237 240 243 246 249 252 255 258 261 264 267 270 273 276 279 282 285 288 291 294 297 300 303 306 309 312 315 318 321 324 327 330 333 336 339 342 345 348 351 354 357 </DataArray>
			</Polys>
		</Piece>
	</PolyData>
</VTKFile>
