<?xml version="1.0"?>
<VTKFile type="PolyData" version="1.0" byte_order="LittleEndian" header_type="UInt32" compressor="vtkZLibDataCompressor">
	<PolyData>
		<Piece NumberOfPoints="55" NumberOfPolys="82">
			<PointData>
				<DataArray type="Float64" Name="points" format="ascii" NumberOfComponents="3" RangeMin="0" RangeMax="10">0 0 2 0 0 1 0 0.892048 1.51395 0 0 0 0 1 0 0 0.672704 0.666709 0 4 3 0 3 3 0 3.5 2.27901 0 9 3 0 8 3 0 8.49452 2.30292 0 6 0 0 7 0 0 6.50021 0.80532 0 9 0 0 10 0 0 9.32591 0.667404 0 2 0 0 1.50516 0.761043 0 10 3 0 9.32811 2.35357 0 3 0 0 4 0 0 3.49879 0.798638 0 6 3 0 5 3 0 5.5 2.27901 0 4.49995 2.29676 0 7 3 0 7.50305 2.27221 0 5 0 0 4.49976 0.803345 0 5.50001 0.807486 0 1 3 0 0 3 0 0.674495 2.34955 0 8 0 0 7.50161 0.792191 0 2 3 0 1.50461 2.26782 0 6.50048 2.27794 0 8.49322 0.773085 0 10 1 0 2.49649 2.26626 0 10 2 0 2.49649 0.789099 0 9.10664 1.5306 0 8.01613 1.55554 0 4.99991 1.56218 0 6.00034 1.56145 0 3.9992 1.559 0 2.99593 1.55412 0 7.00254 1.56042 0 1.98 1.54174 </DataArray>
				<DataArray type="Float64" Name="unique vertices" format="ascii" NumberOfComponents="1" RangeMin="0" RangeMax="663">45 46 635 0 44 636 96 97 637 91 92 638 39 38 639 36 4 640 43 641 7 642 42 41 643 94 95 644 645 93 646 40 647 648 99 5 649 37 650 98 651 652 653 63 654 62 655 656 657 658 659 660 661 662 663 </DataArray>
			</PointData>
			<Points>
				<DataArray type="Float64" Name="Points" format="ascii" NumberOfComponents="3" RangeMin="0" RangeMax="10">0 0 2 0 0 1 0 0.892048412773973 1.5139478533147 0 0 0 0 1 0 0 0.672703696813481 0.666709461909978 0 4 3 0 3 3 0 3.5 2.27900635094611 0 9 3 0 8 3 0 8.49452200473542 2.30291778409081 0 6 0 0 7 0 0 6.50020936465495 0.805319582513857 0 9 0 0 10 0 0 9.32591240027251 0.667403506282831 0 2 0 0 1.5051597207205 0.761043226270158 0 10 3 0 9.32811312101309 2.35357119510709 0 3 0 0 4 0 0 3.49878603980939 0.798637906643057 0 6 3 0 5 3 0 5.5 2.27900635094611 0 4.49995269608119 2.29676004762177 0 7 3 0 7.50305280655439 2.27220798744312 0 5 0 0 4.49975609372406 0.803345041914023 0 5.50000567696607 0.807486449965951 0 1 3 0 0 3 0 0.674494749716194 2.34955154582205 0 8 0 0 7.50161195665539 0.792190810698291 0 2 3 0 1.50461274147572 2.26782021759367 0 6.50047700102412 2.27794410664877 0 8.49321752090394 0.773084637285345 0 10 1 0 2.496493076397 2.26626190388302 0 10 2 0 2.4964901071697 0.789098606881377 0 9.10664391467445 1.53059808756092 0 8.01613321535991 1.55553523297233 0 4.99991350153291 1.5621848090435 0 6.0003420298845 1.56145442154816 0 3.99920076821601 1.55900138216476 0 2.99592818226354 1.5541215897888 0 7.00253659597676 1.56042327313593 0 1.98000347691193 1.54173777306861 </DataArray>
			</Points>
			<CellData />
			<Polys>
				<DataArray type="Int64" Name="connectivity" format="ascii" RangeMin="0" RangeMax="54">0 1 2 3 4 5 6 7 8 9 10 11 12 13 14 15 16 17 4 18 19 20 9 21 22 23 24 25 26 27 26 6 28 10 29 30 23 31 32 31 12 33 34 35 36 13 37 38 39 34 40 35 0 36 1 3 5 29 25 41 37 15 42 16 43 17 7 39 44 45 20 21 18 22 46 43 45 47 38 37 42 38 42 48 48 42 47 4 19 5 5 19 2 32 31 33 32 33 49 49 33 50 49 50 27 23 32 24 24 32 51 51 32 49 51 49 28 46 22 24 46 24 52 52 24 51 52 51 8 13 38 14 14 38 53 53 38 48 53 48 30 42 15 17 42 17 47 18 46 19 19 46 54 54 46 52 54 52 44 19 54 2 2 1 5 33 12 14 33 14 50 14 53 50 50 53 41 34 36 40 40 36 2 44 39 40 44 40 54 26 28 27 27 28 49 7 44 8 8 44 52 29 41 30 30 41 53 41 25 27 41 27 50 28 6 8 28 8 51 21 9 11 21 11 47 10 30 11 11 30 48 47 45 21 43 47 17 40 2 54 47 11 48 2 36 0 </DataArray>
				<DataArray type="Int64" Name="offsets" format="ascii" RangeMin="0" RangeMax="55">3 6 9 12 15 18 21 24 27 30 33 36 39 42 45 48 51 54 57 60 63 66 69 72 75 78 81 84 87 90 93 96 99 102 105 108 111 114 117 120 123 126 129 132 135 138 141 144 147 150 153 156 159 162 165 168 171 174 177 180 183 186 189 192 195 198 201 204 207 210 213 216 219 222 225 228 231 234 237 240 243 246 </DataArray>
			</Polys>
		</Piece>
	</PolyData>
</VTKFile>
