<?xml version="1.0"?>
<VTKFile type="PolyData" version="1.0" byte_order="LittleEndian" header_type="UInt32" compressor="vtkZLibDataCompressor">
	<PolyData>
		<Piece NumberOfPoints="76" NumberOfPolys="119">
			<PointData>
				<DataArray type="Float64" Name="points" format="ascii" NumberOfComponents="3" RangeMin="0" RangeMax="10">0.768544 10 3.30742 0 10 3 0.615211 10 2.50985 5.35762 10 5.14305 4.42914 10 4.77166 5.22303 10 4.13065 3.50066 10 4.40027 4.22179 10 3.60642 10 10 4 10 10 5 9.10069 10 4.58784 3 10 0 4 10 0 3.50971 10 0.869369 9 10 0 10 10 0 9.33206 10 0.673708 5 10 0 6 10 0 5.5 10 0.866025 0 10 0 1 10 0 0.674055 10 0.684107 1.64371 10 3.65748 1.38337 10 2.66485 10 10 6 9.06689 10 5.60798 2 10 0 2.51254 10 0.883701 4.5 10 0.866025 8.14305 10 6.25722 7.21457 10 5.88583 8.05796 10 5.14773 7 10 0 6.5 10 0.866025 10 10 7 9.07152 10 6.62861 0 10 2 0 10 1 0.890486 10 1.63796 10 10 3 9.05782 10 3.48413 8 10 0 8.49854 10 0.810797 10 10 1 7.5 10 0.866025 6.28609 10 5.51444 7.06435 10 5.07573 1.51561 10 0.842016 10 10 2 9.33986 10 2.51839 9.10509 10 1.59416 2.57219 10 4.02887 3.16567 10 3.37343 2.28001 10 3.02564 6.32191 10 4.46318 3.08302 10 1.75185 4.03118 10 1.73705 3.63651 10 2.60471 6 10 1.73205 7 10 1.73205 6.5 10 2.59808 8.02071 10 1.69043 5 10 1.73205 5.51301 10 2.5796 4.56981 10 2.60166 2.05884 10 1.89563 2.8335 10 2.53091 7.5 10 2.59808 5.08865 10 3.28654 5.94086 10 3.44039 6.95544 10 3.48842 7.98226 10 3.44966 7.46706 10 4.31297 8.33955 10 4.20407 8.51557 10 2.55997 </DataArray>
				<DataArray type="Float64" Name="unique vertices" format="ascii" NumberOfComponents="1" RangeMin="2" RangeMax="300">73 7 256 68 69 257 70 258 59 60 259 53 52 260 47 2 261 51 50 262 4 55 263 72 264 61 265 54 266 267 65 66 268 49 269 6 64 62 63 270 58 271 48 272 56 273 67 274 275 57 276 277 71 278 279 280 281 282 283 284 285 286 287 288 289 290 291 292 293 294 295 296 297 298 299 300 </DataArray>
			</PointData>
			<Points>
				<DataArray type="Float64" Name="Points" format="ascii" NumberOfComponents="3" RangeMin="0" RangeMax="10">0.768543991081869 10 3.30741759643275 0 10 3 0.615210653736844 10 2.50984726655981 5.3576165455737 10 5.14304661822948 4.42913985468844 10 4.77165594187538 5.2230253774737 10 4.13064636979682 3.50066316380318 10 4.40026526552127 4.22178624954192 10 3.60641491922024 10 10 4 10 10 5 9.10068936772301 10 4.58784401277472 3 10 0 4 10 0 3.50970767116057 10 0.869369049506319 9 10 0 10 10 0 9.33206184873593 10 0.673707888209582 5 10 0 6 10 0 5.5 10 0.866025403784439 0 10 0 1 10 0 0.67405477741614 10 0.684106997313809 1.64370978203266 10 3.65748391281307 1.38337109385661 10 2.66485430820686 10 10 6 9.06688663435965 10 5.60797673686502 2 10 0 2.51253603265211 10 0.883701313008148 4.5 10 0.866025403784439 8.14304661822948 10 6.25721864729179 7.21456992734422 10 5.88582797093769 8.05796371495091 10 5.14772718245349 7 10 0 6.5 10 0.866025403784439 10 10 7 9.07152330911474 10 6.6286093236459 0 10 2 0 10 1 0.890485844448497 10 1.63796484441837 10 10 3 9.05782425166599 10 3.48412793261418 8 10 0 8.49854270719162 10 0.810797127365274 10 10 1 7.5 10 0.866025403784439 6.28609323645896 10 5.51443729458358 7.06434533660475 10 5.07572792876659 1.51561255323156 10 0.842015965545411 10 10 2 9.33986388584431 10 2.51838928962875 9.10509088071325 10 1.59416212963392 2.57218647291792 10 4.02887458916717 3.16566570277893 10 3.37343413306193 2.280014917099 10 3.02564202628185 6.32190628727243 10 4.46318352537281 3.08302420606884 10 1.75185176136705 4.03117569232297 10 1.73704759259573 3.63650544294775 10 2.60471117531112 6 10 1.73205080756888 7 10 1.73205080756888 6.5 10 2.59807621135332 8.02071401986826 10 1.69043223243664 5 10 1.73205080756888 5.51301151511323 10 2.57959558359337 4.56980545992708 10 2.60166460570664 2.05883524687751 10 1.89563031409541 2.83350017676511 10 2.53091067171287 7.5 10 2.59807621135332 5.08864955356663 10 3.28653648999245 5.94085890647305 10 3.44039207267897 6.95543608143346 10 3.48841793218225 7.98226360542267 10 3.449659101511 7.4670591809432 10 4.31296948224768 8.3395458521231 10 4.20406520594688 8.5155699878503 10 2.55997049943115 </DataArray>
			</Points>
			<CellData />
			<Polys>
				<DataArray type="Int64" Name="connectivity" format="ascii" RangeMin="0" RangeMax="75">0 1 2 3 4 5 4 6 7 8 9 10 11 12 13 14 15 16 17 18 19 20 21 22 23 0 24 9 25 26 27 11 28 12 17 29 30 31 32 18 33 34 25 35 36 37 38 39 40 8 41 42 14 43 15 44 16 33 42 45 1 37 2 31 46 47 21 27 48 49 40 50 38 20 22 44 49 51 6 52 53 52 23 54 46 3 55 36 30 26 7 6 53 53 52 54 11 13 28 28 13 56 56 13 57 56 57 58 21 48 22 22 48 39 19 18 34 19 34 59 59 34 60 59 60 61 42 43 45 45 43 62 62 43 51 29 17 19 29 19 63 63 19 59 63 59 64 29 63 57 57 63 65 29 57 13 29 13 12 27 28 48 48 28 66 66 28 56 66 56 67 48 66 39 39 38 22 37 39 2 34 33 45 34 45 60 60 45 62 60 62 68 43 14 16 43 16 51 63 64 65 65 64 69 69 64 70 69 70 5 67 56 58 67 58 53 60 68 61 61 68 71 71 68 72 71 72 73 73 72 74 73 74 32 23 24 54 54 24 66 58 57 65 58 65 7 71 73 55 24 0 2 70 64 61 61 64 59 74 72 41 70 61 71 70 71 55 65 69 7 32 31 47 66 67 54 72 68 75 75 68 62 75 62 51 72 75 41 4 7 5 55 3 5 7 53 58 44 51 16 10 9 26 10 26 32 40 41 50 50 41 75 51 49 50 51 50 75 26 25 36 8 10 41 41 10 74 47 46 55 30 32 26 53 54 67 5 7 69 32 47 73 47 55 73 55 5 70 66 24 39 32 74 10 24 2 39 </DataArray>
				<DataArray type="Int64" Name="offsets" format="ascii" RangeMin="0" RangeMax="76">3 6 9 12 15 18 21 24 27 30 33 36 39 42 45 48 51 54 57 60 63 66 69 72 75 78 81 84 87 90 93 96 99 102 105 108 111 114 117 120 123 126 129 132 135 138 141 144 147 150 153 156 159 162 165 168 171 174 177 180 183 186 189 192 195 198 201 204 207 210 213 216 219 222 225 228 231 234 237 240 243 246 249 252 255 258 261 264 267 270 273 276 279 282 285 288 291 294 297 300 303 306 309 312 315 318 321 324 327 330 333 336 339 342 345 348 351 354 357 </DataArray>
			</Polys>
		</Piece>
	</PolyData>
</VTKFile>
