<?xml version="1.0"?>
<VTKFile type="PolyData" version="1.0" byte_order="LittleEndian" header_type="UInt32" compressor="vtkZLibDataCompressor">
	<PolyData>
		<Piece NumberOfPoints="77" NumberOfPolys="121">
			<PointData>
				<DataArray type="Float64" Name="unique vertices" format="ascii" NumberOfComponents="1" RangeMin="3" RangeMax="437">127 3 392 128 393 131 130 394 133 132 395 136 135 396 146 147 397 134 398 152 153 399 144 5 10 145 400 401 149 150 402 148 403 404 151 405 406 11 139 407 408 409 137 138 410 140 141 411 142 412 143 413 414 129 415 416 417 418 419 420 421 422 423 424 425 426 427 428 429 430 431 432 433 434 435 436 437 </DataArray>
				<DataArray type="Float64" Name="points" format="ascii" NumberOfComponents="3" RangeMin="0" RangeMax="10">9.23146 0 6.69258 10 0 7 9.3637 0 7.50468 8.35629 0 6.34252 8.45696 0 7.3907 5.57086 0 5.22834 6.49934 0 5.59973 5.72517 0 6.21169 3.71391 0 4.48556 4.64238 0 4.85695 3.90523 0 5.46601 0.928477 0 3.37139 1.85695 0 3.74278 0.952638 0 4.39854 8 0 10 7 0 10 7.50809 0 9.14263 2.78543 0 4.11417 1.97171 0 4.91711 2 0 10 1 0 10 1.46743 0 9.16268 0 0 4 0 0 3 10 0 10 9 0 10 9.3321 0 9.3262 8.49891 0 9.18827 5 0 10 4 0 10 4.40902 0 9.10004 6 0 10 5.41017 0 8.93428 4.80692 0 5.84442 3 0 10 2.45608 0 9.09959 6.51309 0 9.09201 0 0 10 0 0 9 0.66643 0 9.33703 3.4521 0 9.10461 3.01308 0 5.11305 10 0 8 10 0 9 9.10203 0 8.3997 0 0 8 0 0 7 0.866025 0 7.5 0 0 6 0.872888 0 6.49111 0 0 5 0.924483 0 5.45216 0.819102 0 8.51284 7.42781 0 5.97113 7.53935 0 6.88088 6.64359 0 6.55296 5.0042 0 6.82955 1.81176 0 8.10108 1.71717 0 6.99491 2.45967 0 7.38811 2.49876 0 6.54191 1.75054 0 6.00393 4.08779 0 6.46563 4.35419 0 7.4577 5.237 0 7.80852 5.91385 0 7.16731 3.34007 0 7.17636 3.21847 0 6.06187 6.14406 0 8.12924 2.90889 0 8.17488 8.03127 0 8.33715 7.08327 0 8.2997 7.5766 0 7.66487 4.66488 0 8.31517 3.87063 0 8.22565 2.49217 0 5.7156 6.80763 0 7.44879 </DataArray>
			</PointData>
			<Points>
				<DataArray type="Float64" Name="Points" format="ascii" NumberOfComponents="3" RangeMin="0" RangeMax="10">9.23145600891813 0 6.69258240356725 10 0 7 9.36370473483074 0 7.50467860081642 8.35629021796733 0 6.34251608718693 8.45695940067115 0 7.39069722565513 5.57086014531156 0 5.22834405812462 6.49933683619681 0 5.59973473447873 5.7251738632829 0 6.21169430993748 3.71390676354104 0 4.48556270541641 4.6423834544263 0 4.85695338177052 3.90522656500156 0 5.46600724030225 0.928476690885259 0 3.3713906763541 1.85695338177052 0 3.74278135270821 0.952637630522182 0 4.39854165199163 8 0 10 7 0 10 7.50809227565269 0 9.1426311245499 2.78543007265578 0 4.11417202906231 1.97171295271483 0 4.91710587247476 2 0 10 1 0 10 1.46743275454641 0 9.1626847147238 0 0 4 0 0 3 10 0 10 9 0 10 9.33209844118279 0 9.3261990263997 8.49890863166024 0 9.18827201872759 5 0 10 4 0 10 4.40901668203056 0 9.1000444092994 6 0 10 5.41016775865763 0 8.9342779555206 4.80692080795518 0 5.84441628436682 3 0 10 2.45607699570998 0 9.09958794453168 6.51309068019213 0 9.09201150170145 0 0 10 0 0 9 0.666430175419375 0 9.33702606449611 3.45209919008918 0 9.1046059814443 3.01307902936593 0 5.11304790085164 10 0 8 10 0 9 9.10202633160711 0 8.39969838885095 0 0 8 0 0 7 0.866025403784439 0 7.5 0 0 6 0.872888176425498 0 6.49111251481838 0 0 5 0.924483139739552 0 5.45216076020583 0.819102464104659 0 8.51283960088434 7.42781352708207 0 5.97112541083283 7.53935230208477 0 6.88087748960534 6.64358842814826 0 6.55296051023277 5.00420442479715 0 6.82954700314187 1.81175743982901 0 8.10108482648037 1.7171655097014 0 6.99490949294798 2.45967472273353 0 7.38811352198432 2.49875678101247 0 6.5419071752808 1.75054039314334 0 6.0039260819614 4.0877944784338 0 6.46563416253947 4.35419340662004 0 7.45770281957329 5.23700407173998 0 7.80852118854027 5.9138511498758 0 7.16731021290479 3.34006859290902 0 7.17636442769768 3.2184680260293 0 6.06186966683322 6.14406471993948 0 8.12924048617173 2.90889228709726 0 8.17487513548989 8.03126894594827 0 8.33714611603427 7.08327096937512 0 8.29969812553249 7.57660214838325 0 7.66486530883282 4.66487530113492 0 8.31516644395481 3.8706275638956 0 8.22564740329636 2.49217266983777 0 5.71560462815603 6.80762778539463 0 7.44878618368971 </DataArray>
			</Points>
			<CellData />
			<Polys>
				<DataArray type="Int64" Name="connectivity" format="ascii" RangeMin="0" RangeMax="76">0 1 2 3 0 4 5 6 7 8 9 10 11 12 13 14 15 16 12 17 18 19 20 21 22 23 11 24 25 26 25 14 27 28 29 30 31 28 32 9 5 33 34 19 35 15 31 36 37 38 39 29 34 40 17 8 41 42 43 44 45 46 47 1 42 2 46 48 49 48 50 51 38 45 52 20 37 39 50 22 13 43 24 26 53 3 54 6 53 55 4 0 2 10 9 33 18 17 41 33 5 7 33 7 56 39 38 52 39 52 21 52 45 47 52 47 57 57 47 58 57 58 59 59 58 60 51 50 13 49 48 51 49 51 61 61 51 18 46 49 47 47 49 58 52 57 21 49 61 58 58 61 60 53 54 55 11 13 22 54 3 4 12 18 13 33 56 62 62 56 63 33 62 10 63 56 64 64 56 65 62 63 66 62 66 67 67 66 60 41 8 10 13 18 51 64 65 68 64 68 32 10 62 67 40 34 35 40 35 69 69 35 57 14 16 27 27 16 70 70 16 71 70 71 72 70 72 4 28 30 32 32 30 73 73 30 74 73 74 63 32 73 64 26 25 27 26 27 44 30 29 40 30 40 74 15 36 16 16 36 71 31 32 36 36 32 68 35 19 21 35 21 57 21 20 39 40 69 74 74 69 66 7 6 55 44 43 26 63 64 73 42 44 2 27 70 44 41 10 67 60 61 75 60 75 67 75 61 18 68 65 76 68 76 71 76 65 55 7 55 65 66 63 74 65 56 7 57 59 69 59 60 66 71 36 68 55 54 76 76 54 72 18 41 75 72 71 76 41 67 75 54 4 72 70 4 44 4 2 44 69 59 66 </DataArray>
				<DataArray type="Int64" Name="offsets" format="ascii" RangeMin="0" RangeMax="77">3 6 9 12 15 18 21 24 27 30 33 36 39 42 45 48 51 54 57 60 63 66 69 72 75 78 81 84 87 90 93 96 99 102 105 108 111 114 117 120 123 126 129 132 135 138 141 144 147 150 153 156 159 162 165 168 171 174 177 180 183 186 189 192 195 198 201 204 207 210 213 216 219 222 225 228 231 234 237 240 243 246 249 252 255 258 261 264 267 270 273 276 279 282 285 288 291 294 297 300 303 306 309 312 315 318 321 324 327 330 333 336 339 342 345 348 351 354 357 360 363 </DataArray>
			</Polys>
		</Piece>
	</PolyData>
</VTKFile>
