<?xml version="1.0"?>
<VTKFile type="UnstructuredGrid" version="1.0" byte_order="LittleEndian" header_type="UInt32" compressor="vtkZLibDataCompressor">
	<UnstructuredGrid>
		<Piece NumberOfPoints="727" NumberOfCells="2809">
			<PointData>
				<DataArray type="Float64" Name="points" format="ascii" NumberOfComponents="3" RangeMin="0" RangeMax="10">8.8508 8.82118 5.05183 10 8.34158 4.15536 8.9639 7.93881 3.90075 9.05107 9.0277 3.98992 6.67499 4.89098 2.83392 6.05235 5.54341 3.77286 6.43257 6.53489 3.11115 5.64591 6.01204 2.61975 3.5 0 0.866025 4 0 0 3 0 0 3.5 0.866025 0 0 1 3 0 0.674495 2.34955 0.62536 0.657188 3.25014 0 0 3 10 7.48668 4.29513 10 7.01426 5.23446 8.62056 7.55755 4.91924 9.1924 6.98879 4.02869 10 4.99581 3.52264 10 4.5 4.40192 10 5.5 4.40192 9.16305 5 4.6906 4.74075 7.05799 3.03925 4.10446 8.73061 3.00313 3.23038 7.43892 3.28088 4.51965 7.99739 3.73535 0 4.49995 2.29676 0 4.99991 1.56218 0 5.5 2.27901 0.827354 5.05742 2.05492 5.50057 6.03975 0 5.00824 5.76158 0.987118 5.55357 4.87655 0.888255 5.95125 6.3117 0.927978 2.91527 0.932133 2.75397 1.71801 1.86166 3.68721 2.75123 2.06316 2.19545 1.99879 0.85826 2.32325 8.14804 8.15167 3.13288 6.86729 7.53709 4.02897 7.50828 8.94689 3.75218 6.91313 7.50854 2.96515 7 1.73205 0 6.5 2.59808 0 6 2.3094 1.44338 7.69133 2.09676 1.0487 8.83731 7.55316 0 10 8.49784 0.80063 9.11948 8.57539 0 8.66466 7.50056 1.4437 9.19592 4.5 6.67837 8.29906 5.04927 6.31963 9.20518 5.50258 6.68207 9.03453 5.54749 5.58404 10 5 1.73205 8.60783 5.99665 2.31134 8.74665 5.16759 1.25146 8.46771 4.49859 2.60151 0 0.672704 0.666709 0 0 0 0.677216 0 0.658359 0 0 1 0.804084 4.5 3.32163 1.41772 4 2.6188 5.00441 6.8493 0 4.03035 6.82229 0 4.03823 6.28541 1.26795 4.03546 7.36403 0.824357 0 1 0 0.676921 0.659425 0 8.1835 0 5.16737 9.1527 0 5.63018 9.16523 1.21666 5.03331 9.22581 0.878802 5.95352 10 2.76518 3.50646 9.1637 2.04169 3.50264 8.96764 3.35567 3.76213 9.05723 3.01033 2.52499 8.47267 6.07011 6.38907 0 9.32811 2.35357 0.615211 10 2.50985 0 10 3 0 9 3 0 9.32591 0.667404 0.674055 10 0.684107 0 9.10664 1.5306 1.27844 8.55694 1.34861 5.40185 6.49688 1.7616 10 1.83672 1.87369 10 2.55129 2.55395 8.70197 2.7825 1.56465 10 0 4 10 0 3 9.05024 0 3.48654 10 0.866025 3.5 2.20501 1.14393 1.34836 3.02725 2.26746 0.970639 2.03762 2.53154 0.886333 2.76836 3.49898 0 3.4507 2.59376 0 3.31198 3.19897 1.49898 5.5 2.59808 0 6 1.73205 0 3.50971 10 0.869369 4 10 0 3.49797 9.14815 0 3 10 0 7.5 0 2.59808 6.99684 0 3.47667 7.99674 0 3.4542 7.49029 1.11566 3.17589 0.910711 0 2.40054 6.46164 8.98718 3.17935 5.46553 8.58188 3.63614 5.90318 7.89261 4.32804 5.83926 8.81278 4.45746 7.91689 0.799583 3.96865 6.72192 1.86891 5.68877 6.09519 0.915048 5.43808 6.74784 1.55667 4.08855 7.71131 0.935831 5.00093 9.03613 8.9088 2.13597 7.65688 8.43614 1.76799 9.08559 8.01111 2.6798 8.39709 3.98721 6.35884 9.11978 3.73912 5.69468 0.770429 1.47869 3.30817 1.49641 1.9703 2.00869 0.991629 1.08266 2.3364 7.02073 8.37168 0 7.56443 7.58029 0 7.54576 8.61197 0.791199 6.7836 7.96909 0.885915 4.80068 7.98305 4.92027 4.83368 9.02123 4.93347 4.72535 9.15944 3.95698 3.72413 4.6117 2.18219 4.7243 5.68658 2.45048 3.95928 5.541 3.42014 4.8843 4.70995 3.68201 3.7455 1.26979 2.18698 4.51601 2.25115 2.75199 4.93685 0.903349 2.83972 5.18708 1.43682 1.92864 8.05367 6.74751 0 7.54787 7.01046 1.12444 8.20221 6.36618 0.837337 3.99218 8.47248 4.59687 0 1.50461 2.26782 0 1.98 1.54174 6.46207 0 4.48093 5.11424 0.872788 5.0457 5.39435 1.31612 3.72358 3.12332 6.75708 0 0 1.50516 0.761043 0.838719 1.46342 0 5.00369 7.86665 0.9507 5.46466 8.29662 1.88686 6.2018 7.27461 1.31297 5.63358 8.71299 0.932123 3.0799 2.21405 3.19993 2.83636 3.50009 2.71779 3.60385 2.68191 2.39086 2.3369 2.77403 3.05116 10 8.14504 5.14149 10 9.17253 5.5243 10 9.10048 4.53349 2.41225 5.5 3.9649 2.44172 4.5063 3.97669 2.49015 4.79595 2.66048 3.26133 4.6117 3.33918 5.88738 2.83505 3.6655 4.35466 3.67806 3.1628 5.26278 2.93146 2.13208 3.4295 3.58308 3.5091 0 6 3 0 7 3 0.804084 6.5 3.32163 0 6.50048 2.27794 0.890486 10 1.63796 0 10 1 0 2.49649 0.789099 0.866025 3.5 0 0 3 0 0 3.49879 0.798638 10 7 1.73205 10 8.01675 1.70304 9.05561 7 2.34074 4.5 10 0.866025 4.03118 10 1.73705 4.00585 8.99477 1.16173 8.32573 8.09898 6.33029 9.28237 8.11823 5.94475 7.01362 6.81158 0 7.50619 5.99507 0 7.00907 6.18769 0.865943 2.55777 2.52314 0 7.81583 7.23151 2.33688 7.45062 6.16022 3.26416 10 3.46199 2.61202 3.10138 9.06798 4.24055 3.17968 8.51826 3.38264 4.90093 0 3.42587 4.45381 0 4.10353 5.34404 0 4.26052 1.73591 3.49665 1.74363 6.47919 0.859065 3.18962 4.03031 2.31339 3.67597 4.97892 2.50993 4.02819 4 8.38952 0 3.53232 7.56492 0 3.42853 8.04766 0.762917 0.931068 7.55319 1.7661 0.807343 8.07842 2.53168 1.69469 8.0777 2.10262 9.00306 6.25192 1.30015 7.75495 6.2181 1.76242 10 7.5 0.866025 6.65755 8.75649 1.71536 4.5 2.59808 0 5 1.73205 0 4.5 2.02073 1.32513 0.735743 7.00285 2.46422 9.05271 3.46724 0 9.34816 2.51469 0 10 3.5 0.866025 9.09784 4.55763 0 10 4 0 10 4.5 0.866025 8.89294 3.94295 1.18764 1.31578 5.49997 1.3505 0.780707 5 0.776647 8.97521 6.44558 4.9308 7.43247 5.75138 4.54905 8.91478 5.79856 4.09532 3.26516 9.08703 2.23968 4.51713 9.15001 2.03439 6.07373 2.68045 5.42949 6.87278 2.39784 4.75722 6.38152 3.3087 4.58158 6.95734 7.74127 1.92663 6.36961 6.35213 2.03279 5.89691 7.21634 2.27994 7.42074 3.12313 1.54869 8.07012 4.61307 0.828656 6.98997 4.25247 1.04828 8.09735 3.85737 1.86206 1.7046 4.99785 0 0.866025 4.5 0 1.74104 4.00631 0 1.00506 3.98973 1.02038 0.785951 7.51762 3.31438 1.64421 6.71013 2.43814 9.38548 9.33353 6.75419 10 9.32528 6.33786 9.2537 8.50669 6.70148 9.31832 8.96616 6.0087 9.10069 10 4.58784 8.05796 10 5.14773 8.33955 10 4.20407 3.01767 8.85077 0.872717 4.22179 10 3.60642 3.97305 9.29612 4.58922 4.42914 10 4.77166 3.50066 10 4.40027 7.90283 6.55369 6.16113 7.19062 6.57168 5.87625 7.66464 7.2951 6.06585 7.89916 6.83831 5.155 6 0 0 6.5 0.866025 0 5.5 0.866025 0 6 0.92376 0.92376 0.978163 1.05425 1.01994 1.07406 2.70128 1.20094 5.11312 2.61051 5.04525 5.57193 3.4747 5.22877 5.43576 3.60534 4.20351 8.00772 0.92924 0.925732 9.06879 1.96177 0.996231 8.50414 1.42277 1.80756 6.51042 3.5076 5.60417 6.97014 4.52813 4.31177 7.39131 3.44662 4.83291 7.82757 8.68512 4.76208 2.31402 8.50594 3.92561 2.21797 9.33108 3.88719 0 8.01613 1.55554 0 8.49452 2.30292 0 7.50305 2.27221 3.97126 0 1.72586 4.40405 0 2.59277 4.98805 0 1.73085 2.05884 10 1.89563 2.8335 10 2.53091 1.97081 8.96405 2.49951 7.50201 2.5877 0 7 3.4641 0 6.5 3.37768 0.88085 1.60817 6 3.64327 2.41225 6.5 3.9649 3.01111 6.22246 2.59565 10 7 7 9.20741 7.50569 6.68297 10 7.51081 6.12299 10 6.5 6.13397 0 0.892048 1.51395 6.49978 7.59793 0 1.87042 0 1.79616 2.96461 0 1.71325 1.57253 4.5426 1.72284 2.73349 5.35943 1.37458 2.88812 4.24754 1.51298 2.16606 4.25248 0.849073 5.8314 9.13167 5.33256 6.32191 10 4.46318 6.82498 9.03303 4.60965 7.46706 10 4.31297 6.95544 10 3.48842 7.98226 10 3.44966 6.3272 3.25551 2.54047 5.46678 4.04216 2.85987 10 8 7 5.82211 5.30835 1.94321 4.85234 4.97234 1.67757 10 7 0 10 6.5 0.866025 9.06229 6.48428 0 10 6 0 2.45663 7.63688 2.54602 2.99489 0.843086 0.843086 2.53185 0 2.42398 3.37457 0 2.54198 10 10 5 10 10 4 3.17334 8.01025 4.26933 4.02894 7.06318 3.72327 10 9 7 10 8.51492 6.1728 6.50174 9.17212 0 7.5 10 0.866025 7 10 0 6.5 10 0.866025 0 7.50161 0.792191 0 8.49322 0.773085 1.87049 1.83726 0 2.49021 0.874076 0 2.9901 1.73417 0 0 5.50001 0.807486 0.866025 5.5 0 0 5 0 0 6 0 2.52871 4.58373 0 3.48173 4.37675 0 3.09768 5.26926 0 3.5301 4.92644 0.87555 5.5 3.25603 1.01711 6.59155 2.07976 2.96902 7.68597 1.74518 3.89575 7.60684 2.06647 2.97451 4.63337 7.15519 1.84599 1.52403 9.08103 3.60961 1.54466 8.03784 3.61786 7.92647 4.88865 1.81337 7.0621 5.44606 1.72172 7.89465 5.36405 2.74694 0.833323 0 1.45262 2.28793 0.89613 3.91517 2.77229 1.74621 4.10891 2.59105 3.44136 4.03642 1.6773 5.5 2.69316 1.81095 6.01159 0 2.013 5.22118 0.830328 2.28001 10 3.02564 2.57219 10 4.02887 1.64371 10 3.65748 4.56981 10 2.60166 5.13417 9.09806 2.83302 10 9 0 10 8 0 0.760006 8.6062 3.304 5.39415 6.55445 3.93421 5.89068 7.47502 3.26199 1.60817 5 3.64327 1.38337 10 2.66485 1.77098 2.97824 0 0.90008 2.46023 0 6.49934 0 5.59973 7.2211 0 5.10276 1.64494 2.97587 3.65798 0.98168 2.98653 2.36346 8.49794 0 2.58562 9.11268 1.26431 2.83074 7.5 0.866025 0 7.5 0 0.866025 8 0 0 8.00449 9.03079 2.49114 10 9.10425 1.59388 9.10509 10 1.59416 9.33206 10 0.673708 8.41883 8.76033 1.20968 4 0.872912 0.872912 7.60036 2.44601 6.04014 7.4983 3.49741 5.99932 8.56141 3.43768 4.90582 10 3 0 7.70157 4.38614 6.08063 2.01213 9.1121 0.909372 0.993442 9.0932 2.18609 10 7.98351 3.42635 3.16567 10 3.37343 6.9253 4.30947 5.77012 7.824 4.68669 5.01278 9.10814 5.53244 0 7 1.1547 1.1547 5.35762 10 5.14305 5.22303 10 4.13065 10 0.871583 4.51107 10 1.75887 4.01005 9.00162 1.17029 4.00388 3.55848 8.16331 1.83303 3.9475 6.43183 2.93092 3.61349 6.89942 2.03112 8.36635 1.96381 4.56064 8.40418 1.62453 5.46235 1.49386 0 0.805153 2 0 0 1.48454 0.82078 0 0 0 2 2.48985 0 0.867385 6 4.09324 1.63104 6.50833 5.29937 0.878032 10 6 1.73205 10 5.5 0.866025 1 0 0 4.5 4.33013 0 4.0077 5.20284 0 6.97285 1.98982 1.90599 7.40231 3.00039 3.18464 7.83852 2.41621 2.08686 5.09335 4.30788 5.03734 5.85504 4.55812 4.26 2.38041 7.5084 3.95216 10 5.5 2.60954 0 2 3 1.63624 3.98984 3.6545 4.62924 3.47826 4.8517 3.66022 3.44296 4.46409 5.63023 1.79327 5.25209 8.2331 6.66878 4.01637 6.49355 6.38455 4.40594 7.78763 5.53688 0.932155 4.17398 3.93186 1.08815 4.09465 3.60196 2.12005 6 0 1.73205 5.47003 0 2.59358 5.98623 0.814309 2.31735 0 2 0 4.50772 7.62952 0 5.9593 0 3.4726 0 2.99593 1.55412 0 2.49649 2.26626 10 8.51351 2.55525 10 9.04241 3.44169 10 9.33986 2.51839 1.59646 7.0054 3.63858 6.42717 3.84372 3.56656 7.60654 4.43566 3.35957 7.93632 3.5342 3.92826 0.826573 8.51676 0 0.875878 7.522 0 1.49604 7.62066 0.870669 0 4.49976 0.803345 10 6 5.26795 6.5 0 0.866025 7 10 1.73205 7.5 10 2.59808 2.57689 6.35049 1.00674 1.05508 6.62545 1.26664 8.00957 0 1.72106 9.02682 0.945408 0.932033 6.5 0 2.59808 0.818075 2.47892 3.32723 0 3 3 8.5143 2.55492 0 0.928477 0 3.37139 9.19592 3.5 6.67837 2.67049 0 3.19668 1.78453 0 2.82164 10 4.5 6.13397 10 2.54804 4.45133 4.64238 1.73205 4.85695 9.05782 10 3.48413 7.26444 0.934026 2.15673 10 0.671249 6.33883 9.19991 1.39117 6.67996 10 1.47639 6.16775 7.9111 7.81687 4.13868 1.51561 10 0.842016 6.81136 5.81051 5.72454 6.17099 5.31441 4.63768 0 3.9992 1.559 8.95454 2.48147 5.46222 10 1.83527 5.12886 9.28373 1.98095 4.53919 0 4 0 6.01481 4.29635 5.40593 10 5 5.26795 7 0 1.73205 9.33412 0.67015 0 9.32718 0 0.697784 10 0.660033 0.675081 9.06689 10 5.60798 10 10 6 9.07152 10 6.62861 10 6.5 2.59808 8.47694 6.99697 6.39077 9.12546 7.3113 5.72426 3.94976 3.46859 0 4.73734 7.07044 4.89493 3.98942 7.52337 4.59577 1.85197 8.138 0 1.47821 9.16815 0 5.10001 5.55266 3.30887 0 6.50021 0.80532 8.99734 6.39688 3.26534 4.9701 1.17196 0.899068 0.672566 9.33545 0 2.5456 8.47653 1.74917 2.78708 9.25336 3.03595 10 5.99942 3.50765 8.88992 5.3138 3.19085 3.74201 0 3.49791 3.24967 0.866025 4.29987 3.71391 0 4.48556 4.08245 1.1547 3.5642 10 3.46291 4.39658 10 4 5.26795 3.08302 10 1.75185 3.63651 10 2.60471 0 9 0 0 8 0 1.85695 0 3.74278 8.12406 5.11741 0 7.67614 5.85167 6.07046 4.64238 0 4.85695 4.17814 0.866025 4.67126 10 4.5 2.61004 10 2.97555 1.75359 5.57086 0 5.22834 10 1.47319 0.836884 5.37266 6.48291 5.14906 0.866025 6.5 0 6.00171 6.83564 0 6.28372 8.23768 2.51036 5.05313 8.0457 2.82588 8.54455 2.11153 2.69728 8.27594 2.58942 3.58894 6.5 4.33013 0 0 3.5 2.27901 0.804084 3.5 3.32163 0 4 3 9.3211 9.35348 0 8.5025 9.24191 0 10 3.94976 3.51496 8.3627 4.93363 4.06701 4.58842 6.0401 3.93864 8.02071 10 1.69043 4.49983 9.20561 0 5.5 9.18914 0 5.5 10 0.866025 0.862066 6.04209 2.03705 6.88816 2.81494 5.75527 5.94086 10 3.44039 5.93951 9.16519 2.26098 6.75887 9.12562 5.70355 7.25962 8.20708 5.90385 2.38355 6.65235 0 1.73011 7.03796 0 5.5 4.33013 0 5 5.19615 0 0 7 0 4.5 0.866025 0 4.5 0 0.866025 5 0 0 9.18808 2.48033 6.67523 10 2 7 8.08437 8.4039 0 7.51464 9.18853 0 10 1.75812 2.99565 3.09649 7.27812 1.11422 8.38718 2.99113 6.35487 4.08578 4.44466 4.63431 0 8 3 10 9.33206 0.673708 6 3.4641 0 4.12744 5.59984 4.65098 7.53232 0 4.31955 9 10 0 10 10 0 10 2.96521 5.23531 10 2.46651 6.10048 9.33986 10 2.51839 8.51557 10 2.55997 2.51254 10 0.883701 2 10 0 2.47308 9.11029 0 4 1.73205 0 1.37738 0.819974 3.55095 0 10 0 0 10 2 3.22978 2.58408 4.29191 2.43046 7.99281 0.87485 10 4 1.73205 1 10 0 5.08865 10 3.28654 2.71396 6.01925 0 3.56976 6.02305 0 3.14299 5.7656 0.709061 3.71391 1.73205 4.48556 5.5 0 0.866025 7.012 5.17544 0 10 0.822424 5.51952 6.42217 5.0601 5.56887 5.52994 5.04299 5.21197 0.768544 10 3.30742 8.50338 0.802412 0 8.50351 0 0.828531 9 0 0 6 10 1.73205 0.804084 5.5 3.32163 0 5 3 7.0399 0.829089 5.81596 9.107 1.59121 0 2.35889 5.3804 0 6.74387 7.39007 5.69755 6 8.38088 0 5.04458 5.71319 5.01783 5.27686 5.34191 4.21454 8.64251 9.15989 6.45701 7.72047 9.09214 6.08819 7.21457 10 5.88583 7.06435 10 5.07573 10 2.46651 0.899519 8.41404 1.96165 6.36562 10 10 2 6 5.19615 0 6.50114 6.02571 0 9.22291 6.5014 6.68917 5 10 1.73205 6.5 10 2.59808 5.51301 10 2.5796 7.42578 7.72665 5.02544 4.17814 2.59808 4.67126 10 7.5 2.59808 2.99624 8.28628 0 10 3.5 6.13397 5.50105 7.63246 0 9.23146 0 6.69258 8.4463 0.930229 6.37852 9.09809 0 1.62915 10 0.815248 1.48765 8.49854 10 0.810797 9.13071 0 4.57123 6.28365 6.56427 5.51346 6.30184 8.27035 5.52074 5.00076 8.41638 0 10 6.49776 4.37449 10 7 3.4641 6.28609 10 5.51444 7.31789 5.07835 5.92716 10 0 5 3.21421 6.03334 4.28568 2.78543 0 4.11417 10 4 7 8.38359 0 4.19934 2.59429 7.41955 0 2.14018 7.14336 1.58771 8.02206 1.6875 0 4.51179 6.03234 0 7.42781 0 5.97113 7.79629 0.6564 6.11851 10 2 0 10 5 7 10 5.5 6.13397 4.76395 5.03131 4.90558 10 0 6 3.23217 5.03468 4.29287 3.20037 4.16433 4.28015 7 0 0 0 6.00034 1.56145 2.39248 2.52076 3.95699 4.6438 6.29769 4.85752 10 3 7 10 0 7 9.31744 0 2.54008 10 1 7 8.36745 5.99178 0 10 6 7 8.35629 0 6.34252 3.20299 7.01877 4.2812 7.67261 1.46218 6.06904 8.33966 4.1834 0 7.98774 3.42732 0 5 3.4641 0 10 10 7 10 5 0 10 10 3 8.14305 10 6.25722 7.03372 3.98397 2.11465 10 0.870222 2.49054 6 10 0 5.89463 5.78281 5.35785 10 10 1 5 10 0 8 10 0 7.48395 4.29814 0 10 0 0 10 0 2 10 0 1 10 1 0 3.97843 6.5958 4.59137 0 7.00254 1.56042 5.50026 8.36433 5.2001 5.68742 7.44302 5.27497 </DataArray>
				<DataArray type="Float64" Name="unique vertices" format="ascii" NumberOfComponents="1" RangeMin="0" RangeMax="1316">1110 605 1138 1156 1273 1132 1297 1299 357 15 14 155 99 649 742 5 597 596 1106 1274 591 589 590 1197 1162 1108 1180 1182 645 658 644 1257 230 1186 1253 1264 1166 795 1167 1171 1125 1129 1134 1293 207 212 1100 1179 255 562 168 1090 741 772 743 1176 580 1137 1151 1192 636 0 356 46 749 1091 231 232 1135 1163 44 172 370 347 1214 1251 573 1200 1207 1238 773 642 256 7 91 640 263 656 1094 1300 571 586 1188 33 32 362 544 1136 1112 1145 201 211 1093 204 203 260 52 183 53 383 385 386 1099 366 1114 1113 1240 1306 1175 800 731 1095 1204 1149 1313 1230 764 1109 744 1097 1144 247 242 1201 1263 788 734 1185 1085 1189 1198 1217 1121 1102 1146 1228 241 1122 1301 787 651 663 349 750 1115 252 641 157 1178 1147 1190 1195 1233 1256 1308 1315 598 549 551 769 774 1120 1218 1133 1174 1284 1311 94 93 739 652 270 63 655 169 42 643 577 576 1202 267 282 1111 771 1283 240 239 1203 191 1245 1092 585 757 1123 389 348 364 1087 1116 1173 1258 248 249 1272 1226 1271 1280 1152 1302 547 1210 210 202 1118 1309 178 185 550 170 24 566 1219 1089 1196 1140 1237 1291 1148 1224 810 1170 1260 1267 1269 1307 1119 1239 1246 1259 193 171 200 1098 740 1199 738 545 755 1124 259 268 299 1157 258 753 69 70 822 818 817 1128 17 174 175 1160 1107 1127 807 809 1278 1164 1225 1234 811 1191 1223 1292 793 758 657 638 646 373 379 378 291 292 1086 208 219 1250 766 768 1172 78 747 554 569 635 253 376 372 1101 1126 1139 1211 760 280 1212 298 296 297 1236 1266 77 1235 1270 27 553 176 26 1130 1158 377 374 60 59 784 1193 76 548 184 273 49 269 650 653 189 163 190 648 154 40 39 195 216 244 1131 1229 1209 1286 1295 1243 837 780 1244 1143 1275 367 735 802 790 1161 192 1142 279 71 72 290 1247 29 28 836 1220 1222 770 264 196 165 130 371 791 1216 391 1213 161 351 19 1242 568 277 261 1105 1277 797 798 1104 23 829 1141 1184 602 278 827 1252 173 1088 68 257 543 572 1153 1103 1285 1305 1096 1296 365 13 181 45 353 1187 1227 582 555 12 215 228 1215 1084 1303 823 1231 778 583 98 775 808 812 803 1205 1261 1177 1181 1316 380 381 1221 43 233 390 661 654 603 559 567 767 1265 1298 1314 158 166 1168 647 594 358 285 293 1150 1169 375 1232 384 745 97 217 136 736 361 350 561 575 804 271 1155 542 838 556 1154 275 820 1254 660 1206 574 1304 41 824 587 382 179 363 546 265 61 64 600 781 1194 213 789 785 205 180 1281 639 1249 1183 162 1241 1279 599 1288 359 752 133 1208 593 588 281 283 36 37 135 223 835 132 732 581 584 131 560 831 156 237 1290 1310 1159 1248 221 637 746 96 159 164 592 1165 1276 287 186 188 262 1287 801 295 1289 754 815 198 197 225 227 38 167 355 16 756 83 246 182 570 1117 763 783 92 541 226 782 387 47 2 604 563 276 300 266 54 177 209 733 4 62 806 1294 579 55 294 251 236 1262 796 360 222 540 826 825 73 160 352 20 284 737 95 761 187 194 816 250 832 1268 762 751 66 274 552 765 57 224 238 748 288 286 289 1255 805 578 254 558 234 127 839 369 564 272 354 819 814 235 595 601 67 828 34 777 134 81 388 199 1282 206 229 129 759 22 80 565 830 35 776 794 18 659 792 833 82 3 368 84 243 79 128 779 799 245 218 214 6 25 58 65 1312 557 50 821 56 51 48 220 1 31 30 21 786 662 813 834 </DataArray>
			</PointData>
			<Points>