<?xml version="1.0"?>
<VTKFile type="PolyData" version="1.0" byte_order="LittleEndian" header_type="UInt32" compressor="vtkZLibDataCompressor">
	<PolyData>
		<Piece NumberOfPoints="100" NumberOfPolys="164">
			<PointData>
				<DataArray type="Float64" Name="unique vertices" format="ascii" NumberOfComponents="1" RangeMin="1" RangeMax="605">35 34 540 29 2 541 3 542 33 543 32 544 61 6 545 1 21 546 27 28 547 76 77 548 60 549 23 24 550 59 551 84 22 552 26 553 78 554 25 555 83 556 31 557 81 82 558 58 559 560 56 80 561 562 563 30 564 79 565 566 57 567 568 569 570 571 572 573 574 575 576 577 578 579 580 581 582 583 584 585 586 587 588 589 590 591 592 593 594 595 596 597 598 599 600 601 602 603 604 605 </DataArray>
				<DataArray type="Float64" Name="points" format="ascii" NumberOfComponents="3" RangeMin="0" RangeMax="10">10 0 6 10 0 5 10 0.822424 5.51952 10 9 0 10 10 0 10 9.33206 0.673708 10 0 7 10 0.671249 6.33883 10 0 4 10 0.871583 4.51107 10 0 3 10 0.866025 3.5 10 10 6 10 10 7 10 9.32528 6.33786 10 0 0 10 1 0 10 0.660033 0.675081 10 7 0 10 8 0 10 7.5 0.866025 10 9 7 10 8 7 10 8.51492 6.1728 10 10 5 10 9.17253 5.5243 10 3 0 10 4 0 10 3.5 0.866025 10 10 4 10 9.10048 4.53349 10 1 7 10 2 0 10 2.46651 0.899519 10 6 0 10 6.5 0.866025 10 7 7 10 7.51081 6.12299 10 5 0 10 5.5 0.866025 10 2 7 10 1.47639 6.16775 10 0 2 10 0.870222 2.49054 10 4 7 10 3 7 10 3.5 6.13397 10 10 3 10 9.04241 3.44169 10 1.47319 0.836884 10 10 1 10 5 7 10 4.5 6.13397 10 8.49784 0.80063 10 2.46651 6.10048 10 0 1 10 0.815248 1.48765 10 6 7 10 5.5 6.13397 10 4.5 0.866025 10 10 2 10 9.33986 2.51839 10 9.10425 1.59388 10 6.5 6.13397 10 1.75812 2.99565 10 1.83672 1.87369 10 1.75887 4.01005 10 2.76518 3.50646 10 1.83527 5.12886 10 2.54804 4.45133 10 8.01675 1.70304 10 7 1.73205 10 7.5 2.59808 10 4 1.73205 10 5 1.73205 10 4.5 2.61004 10 6 1.73205 10 5.5 2.60954 10 2.97555 1.75359 10 3.46199 2.61202 10 2.55129 2.55395 10 5 5.26795 10 4 5.26795 10 4.5 4.40192 10 5.5 4.40192 10 4.99581 3.52264 10 3.94976 3.51496 10 3.46291 4.39658 10 6 5.26795 10 6.49776 4.37449 10 7.01426 5.23446 10 7.48668 4.29513 10 8.14504 5.14149 10 5.99942 3.50765 10 6.5 2.59808 10 7 3.4641 10 7.98351 3.42635 10 8.51351 2.55525 10 2.96521 5.23531 10 8.34158 4.15536 </DataArray>
			</PointData>
			<Points>
				<DataArray type="Float64" Name="Points" format="ascii" NumberOfComponents="3" RangeMin="0" RangeMax="10">10 0 6 10 0 5 10 0.822423691432326 5.51951890273283 10 9 0 10 10 0 10 9.33206184873593 0.673707888209582 10 0 7 10 0.671249406927187 6.33883018255166 10 0 4 10 0.871583195724158 4.51106991219723 10 0 3 10 0.866025403784439 3.5 10 10 6 10 10 7 10 9.32527526965339 6.33785597314373 10 0 0 10 1 0 10 0.660033332209798 0.675081429474773 10 7 0 10 8 0 10 7.5 0.866025403784439 10 9 7 10 8 7 10 8.51492292869297 6.17280009601096 10 10 5 10 9.17253215487976 5.52429954812853 10 3 0 10 4 0 10 3.5 0.866025403784439 10 10 4 10 9.10048094716167 4.53349364905389 10 1 7 10 2 0 10 2.46650635094611 0.899519052838329 10 6 0 10 6.5 0.866025403784439 10 7 7 10 7.51080986599373 6.1229937576575 10 5 0 10 5.5 0.866025403784439 10 2 7 10 1.47638671571497 6.1677536690436 10 0 2 10 0.870221592944625 2.49053522745478 10 4 7 10 3 7 10 3.5 6.13397459621556 10 10 3 10 9.04241097347866 3.44168602565616 10 1.4731862016305 0.836884490399742 10 10 1 10 5 7 10 4.5 6.13397459621556 10 8.49783662605234 0.800630042734036 10 2.46650635094611 6.10048094716167 10 0 1 10 0.81524830441957 1.48764804961744 10 6 7 10 5.5 6.13397459621556 10 4.5 0.866025403784439 10 10 2 10 9.33986388584431 2.51838928962875 10 9.10424907085215 1.59387795474492 10 6.5 6.13397459621556 10 1.75811594974919 2.99565397644859 10 1.83671861389425 1.8736862784134 10 1.7588700485457 4.01005152844947 10 2.76517832359624 3.50645891415056 10 1.83527283420918 5.12885908519065 10 2.5480358864391 4.45132630557779 10 8.01674682452694 1.70304445662277 10 7 1.73205080756888 10 7.5 2.59807621135332 10 4 1.73205080756888 10 5 1.73205080756888 10 4.5 2.61004233964073 10 6 1.73205080756888 10 5.5 2.60954375096209 10 2.97554907643124 1.75359009361309 10 3.46198592591681 2.61201504342116 10 2.55128621403761 2.5539533386861 10 5 5.26794919243112 10 4 5.26794919243112 10 4.5 4.40192378864668 10 5.5 4.40192378864668 10 4.99581329386826 3.52264423582167 10 3.94975952641916 3.51495766035927 10 3.46291134020522 4.39658396746192 10 6 5.26794919243112 10 6.49775713558449 4.37448933381136 10 7.01425534352842 5.2344628243024 10 7.48667916114719 4.29513477327534 10 8.1450375776205 5.1414941504881 10 5.99941610266423 3.50765001367609 10 6.5 2.59807621135332 10 7 3.46410161513775 10 7.98351038073453 3.42635330580241 10 8.51350878544211 2.55525196076423 10 2.96521222557126 5.23530683512574 9.99999999999999 8.34158218305933 4.15536329428009 </DataArray>
			</Points>
			<CellData />
			<Polys>
				<DataArray type="Int64" Name="connectivity" format="ascii" RangeMin="0" RangeMax="99">0 1 2 3 4 5 6 0 7 1 8 9 8 10 11 12 13 14 15 16 17 18 19 20 21 22 23 24 12 25 26 27 28 29 24 30 13 21 14 31 6 7 32 26 33 34 18 35 22 36 37 38 34 39 40 31 41 10 42 43 44 45 46 47 29 48 16 32 49 4 50 5 51 44 52 19 3 53 45 40 54 42 55 56 57 51 58 27 38 59 60 47 61 55 15 17 50 60 62 36 57 63 11 10 43 11 43 64 64 43 65 65 43 56 56 43 42 11 64 66 66 64 67 11 66 9 11 9 8 0 2 7 7 2 41 9 66 68 68 66 69 9 68 2 9 2 1 2 68 41 3 5 53 53 5 62 20 19 53 20 53 70 70 53 62 20 70 71 71 70 72 17 16 49 17 49 56 35 18 20 35 20 71 28 27 59 28 59 73 73 59 74 73 74 75 74 59 39 39 59 38 74 39 76 74 76 77 28 73 78 78 73 79 28 78 33 28 33 26 33 78 65 34 35 39 39 35 76 32 33 49 49 33 65 56 55 17 78 79 80 80 79 67 58 51 52 58 52 81 81 52 82 81 82 83 81 83 84 84 83 85 85 83 86 85 86 75 75 74 77 75 77 85 86 83 87 87 83 82 58 81 88 88 81 84 88 84 89 88 89 90 90 89 91 90 91 92 79 73 75 79 75 86 58 88 63 58 63 57 63 88 90 84 85 93 93 85 77 37 36 63 37 63 90 86 87 67 71 72 94 94 72 95 95 72 96 95 96 91 96 72 97 97 72 70 97 70 62 96 97 48 35 71 76 76 71 94 76 94 77 77 94 93 94 95 93 69 66 67 69 67 87 64 65 80 67 64 80 22 37 23 23 37 92 40 41 54 54 41 68 41 31 7 46 45 54 46 54 98 98 54 68 46 98 82 82 98 87 87 98 69 44 46 52 52 46 82 78 80 65 68 69 98 65 56 49 12 14 25 25 14 23 50 62 5 84 93 89 30 24 25 30 25 92 29 30 48 48 30 99 99 30 92 60 61 62 62 61 97 48 99 96 61 47 48 61 48 97 89 93 95 37 90 92 91 89 95 92 91 99 23 92 25 91 96 99 79 86 67 23 14 21 </DataArray>
				<DataArray type="Int64" Name="offsets" format="ascii" RangeMin="0" RangeMax="100">3 6 9 12 15 18 21 24 27 30 33 36 39 42 45 48 51 54 57 60 63 66 69 72 75 78 81 84 87 90 93 96 99 102 105 108 111 114 117 120 123 126 129 132 135 138 141 144 147 150 153 156 159 162 165 168 171 174 177 180 183 186 189 192 195 198 201 204 207 210 213 216 219 222 225 228 231 234 237 240 243 246 249 252 255 258 261 264 267 270 273 276 279 282 285 288 291 294 297 300 303 306 309 312 315 318 321 324 327 330 333 336 339 342 345 348 351 354 357 360 363 366 369 372 375 378 381 384 387 390 393 396 399 402 405 408 411 414 417 420 423 426 429 432 435 438 441 444 447 450 453 456 459 462 465 468 471 474 477 480 483 486 489 492 </DataArray>
			</Polys>
		</Piece>
	</PolyData>
</VTKFile>
