<?xml version="1.0"?>
<VTKFile type="PolyData" version="1.0" byte_order="LittleEndian" header_type="UInt32" compressor="vtkZLibDataCompressor">
	<PolyData>
		<Piece NumberOfPoints="142" NumberOfPolys="242">
			<PointData>
				<DataArray type="Float64" Name="unique vertices" format="ascii" NumberOfComponents="1" RangeMin="0" RangeMax="255">39 40 154 14 15 155 38 156 43 44 157 36 37 158 29 2 159 19 20 160 18 161 4 162 13 163 47 48 164 42 165 166 16 167 28 168 41 169 24 25 170 171 0 172 26 173 17 174 27 255 175 176 53 54 177 55 23 178 1 179 21 180 12 181 49 182 52 183 50 184 22 185 51 186 187 188 189 190 191 192 193 194 195 196 197 198 199 200 201 202 203 204 205 206 207 208 209 210 211 212 213 214 215 216 217 218 219 220 221 222 223 224 225 226 227 228 229 230 231 232 233 234 235 236 237 238 239 240 241 242 243 244 245 246 247 248 254 249 250 251 252 253 </DataArray>
				<DataArray type="Float64" Name="points" format="ascii" NumberOfComponents="3" RangeMin="0" RangeMax="10">0 6 0 0 5 0 0.866025 5.5 0 3 0 0 4 0 0 3.5 0.866025 0 0 7 0 0.866025 6.5 0 0 2 0 0 1 0 0.838719 1.46342 0 0 9 0 0 8 0 0.826573 8.51676 0 10 9 0 10 10 0 9.3211 9.35348 0 8 0 0 9 0 0 8.50338 0.802412 0 7 0 0 7.5 0.866025 0 0 10 0 0.672566 9.33545 0 2 0 0 2.49021 0.874076 0 9 10 0 8 10 0 8.5025 9.24191 0 0 3 0 0.90008 2.46023 0 0.875878 7.522 0 5 0 0 4.5 0.866025 0 10 8 0 9.11948 8.57539 0 0 4 0 0.866025 3.5 0 10 4 0 10 5 0 9.09784 4.55763 0 0.866025 4.5 0 0 0 0 0.676921 0.659425 0 10 6 0 9.10814 5.53244 0 6 0 0 6.5 0.866025 0 10 7 0 8.83731 7.55316 0 5.5 0.866025 0 9.06229 6.48428 0 3 10 0 2 10 0 2.47308 9.11029 0 1 10 0 10 3 0 9.05271 3.46724 0 10 0 0 9.33412 0.67015 0 10 1 0 1.47821 9.16815 0 1 0 0 1.48454 0.82078 0 7 10 0 7.51464 9.18853 0 4 10 0 3.49797 9.14815 0 6 10 0 6.50174 9.17212 0 10 2 0 9.34816 2.51469 0 5 10 0 4.49983 9.20561 0 9.107 1.59121 0 5.5 9.18914 0 1.87049 1.83726 0 2.9901 1.73417 0 2.55777 2.52314 0 1.81095 6.01159 0 1.7046 4.99785 0 2.35889 5.3804 0 2.52871 4.58373 0 1.77098 2.97824 0 1.73011 7.03796 0 2.38355 6.65235 0 2.59429 7.41955 0 1.74104 4.00631 0 2.76836 3.49898 0 5 1.73205 0 6 1.73205 0 5.5 2.59808 0 1.85197 8.138 0 8.02206 1.6875 0 7 1.73205 0 7.50201 2.5877 0 4 1.73205 0 4.5 2.59808 0 3.4507 2.59376 0 6.5 2.59808 0 3.94976 3.46859 0 5 3.4641 0 4.5 4.33013 0 3.48173 4.37675 0 8.5143 2.55492 0 7.98774 3.42732 0 7 3.4641 0 7.48395 4.29814 0 6.5 4.33013 0 7.012 5.17544 0 8.12406 5.11741 0 6 5.19615 0 5.5 4.33013 0 6 3.4641 0 5 5.19615 0 4.0077 5.20284 0 4.51179 6.03234 0 5.50057 6.03975 0 5.00441 6.8493 0 4.03035 6.82229 0 4.50772 7.62952 0 5.50105 7.63246 0 5.00076 8.41638 0 3.56976 6.02305 0 6.00171 6.83564 0 6.50114 6.02571 0 7.50619 5.99507 0 7.01362 6.81158 0 8.05367 6.74751 0 7.56443 7.58029 0 8.36745 5.99178 0 3.09768 5.26926 0 8.33966 4.1834 0 8.08437 8.4039 0 7.02073 8.37168 0 4 8.38952 0 2.99624 8.28628 0 3.53232 7.56492 0 6 8.38088 0 2.71396 6.01925 0 3.12332 6.75708 0 6.49978 7.59793 0 </DataArray>
			</PointData>
			<Points>
				<DataArray type="Float64" Name="Points" format="ascii" NumberOfComponents="3" RangeMin="0" RangeMax="10">0 6 0 0 5 0 0.866025403784439 5.5 0 3 0 0 4 0 0 3.5 0.866025403784439 0 0 7 0 0.866025403784439 6.5 0 0 2 0 0 1 0 0.838719381385855 1.46342378545633 0 0 9 0 0 8 0 0.826573394802043 8.51675799235935 0 10 9 0 10 10 0 9.32109660203896 9.35347729787824 0 8 0 0 9 0 0 8.50338358615643 0.802412479044914 0 7 0 0 7.5 0.866025403784439 0 0 10 0 0.672566169552061 9.3354533920521 0 2 0 0 2.49021266357161 0.87407615822588 0 9 10 0 8 10 0 8.50250008188042 9.24190795779444 0 0 3 0 0.900079965101801 2.4602262917485 0 0.875878328785717 7.52200350865488 0 5 0 0 4.5 0.866025403784439 0 10 8 0 9.11948066131965 8.57539474861409 0 0 4 0 0.866025403784439 3.5 0 10 4 0 10 5 0 9.09784227742739 4.55762873655765 0 0.866025403784439 4.5 0 0 0 0 0.676920797809245 0.659424756130664 0 10 6 0 9.10814315117365 5.53244157713774 0 6 0 0 6.5 0.866025403784439 0 10 7 0 8.83731355047498 7.55315902590847 0 5.5 0.866025403784439 0 9.06229026055567 6.48427554549765 0 3 10 0 2 10 0 2.47308103244095 9.11028702544478 0 1 10 0 10 3 0 9.05270899061186 3.46724451903274 0 10 0 0 9.33411595143181 0.670150077976348 0 10 1 0 1.47820853898396 9.16815053786017 0 1 0 0 1.48454233695444 0.820779788820024 0 7 10 0 7.51464457041939 9.18852994035922 0 4 10 0 3.49796711590426 9.14815401193205 0 6 10 0 6.5017438352058 9.17211567093447 0 10 2 0 9.34815678378338 2.51468664009342 0 5 10 0 4.49983059299202 9.20561181702091 0 9.10699854238885 1.59120861072844 0 5.5 9.1891424651018 0 1.87048585286879 1.83726280317844 0 2.99010315420856 1.73416793316467 0 2.55777222831138 2.5231406460551 0 1.81095336634092 6.01159122081389 0 1.7046004026461 4.997853074987 0 2.35889167426944 5.38039637282483 0 2.5287107861433 4.58373392634112 0 1.77098240137878 2.97823968393168 0 1.73010629469287 7.0379624461597 0 2.38354750849865 6.65235356609423 0 2.5942926590493 7.41955358715573 0 1.74103702468339 4.0063105242853 0 2.76835712114265 3.49897720618607 0 5 1.73205080756888 0 6 1.73205080756888 0 5.5 2.59807621135332 0 1.85197215938507 8.13800261988692 0 8.0220582053425 1.68749973592242 0 7 1.73205080756888 0 7.50200815792537 2.58770238556441 0 4 1.73205080756888 0 4.5 2.59807621135332 0 3.45070099576048 2.59375747606229 0 6.5 2.59807621135332 0 3.94975952641916 3.46858891324554 0 5 3.46410161513775 0 4.5 4.33012701892219 0 3.48173291496452 4.37674595814093 0 8.51429921618114 2.55491995279043 0 7.98774047358083 3.42732303588026 0 7 3.46410161513776 0 7.48394747693182 4.29814412466931 0 6.5 4.33012701892219 0 7.01200299881219 5.17543892191688 0 8.12406386583631 5.11741498229601 0 6 5.19615242270663 0 5.5 4.33012701892219 0 6 3.46410161513776 0 5 5.19615242270663 0 4.00770128963201 5.20284215795882 0 4.51179102157313 6.03233888869225 0 5.50056748150375 6.03974855062143 0 5.0044145495355 6.84930348492841 0 4.03035232322773 6.82228914691733 0 4.50772019730422 7.62951541202898 0 5.50105190391576 7.63245575394035 0 5.00076231685639 8.41637964109074 0 3.56976217673201 6.02304552461089 0 6.00171423889015 6.83564372922407 0 6.5011403223139 6.02570745183356 0 7.50618529420419 5.99507103645096 0 7.01362001359001 6.81157647402437 0 8.05366469587645 6.74750622748247 0 7.56443314007615 7.58028928263063 0 8.36744696305157 5.99178412316881 0 3.09768263771614 5.26925565148928 0 8.33965857770658 4.18339778694014 0 8.08436887353239 8.40389730802746 0 7.02073462492839 8.37168423444844 0 4 8.38952282942117 0 2.99624103262972 8.28627789204133 0 3.53232031678144 7.56491898251722 0 6 8.38088156600766 0 2.71395737481025 6.01925118033824 0 3.12332000322805 6.75707908291565 0 6.49977659582289 7.59792718566647 0 </DataArray>
			</Points>
			<CellData />
			<Polys>
				<DataArray type="Int64" Name="connectivity" format="ascii" RangeMin="0" RangeMax="141">0 1 2 3 4 5 6 0 7 8 9 10 11 12 13 14 15 16 17 18 19 20 17 21 22 11 23 24 3 25 26 27 28 29 8 30 12 6 31 4 32 33 34 14 35 36 29 37 38 39 40 1 36 41 9 42 43 15 26 16 39 44 45 46 20 47 48 34 49 32 46 50 44 48 51 52 53 54 55 22 23 56 38 57 18 58 59 58 60 59 53 55 61 62 24 63 27 64 65 66 52 67 64 68 69 42 62 43 70 56 71 72 66 73 60 70 74 68 72 75 63 24 25 63 25 76 76 25 77 76 77 78 30 8 10 30 10 76 77 25 5 5 25 3 0 2 7 7 2 79 79 2 80 79 80 81 81 80 82 37 29 30 37 30 83 83 30 76 7 79 84 84 79 85 84 85 86 37 83 87 87 83 88 33 32 50 33 50 89 89 50 90 89 90 91 13 12 31 13 31 92 92 31 84 92 84 86 37 87 41 37 41 36 17 19 21 21 19 93 93 19 74 47 20 21 47 21 94 94 21 93 94 93 95 63 76 10 41 87 80 80 87 82 23 11 13 23 13 61 6 7 31 31 7 84 33 89 96 96 89 97 18 59 19 19 59 74 13 92 61 2 1 41 2 41 80 33 96 5 33 5 4 5 96 77 77 96 98 47 94 90 90 94 99 50 46 47 50 47 90 10 9 43 10 43 63 88 83 78 76 78 83 97 89 91 98 96 97 98 97 100 100 97 101 100 101 102 100 102 103 100 103 88 101 97 91 98 100 88 77 98 78 78 98 88 87 88 82 82 88 103 95 93 104 95 104 105 105 104 57 95 105 106 106 105 107 106 107 108 108 107 109 109 107 110 108 109 111 108 111 112 108 112 113 108 113 106 106 113 99 106 99 95 104 93 74 94 95 99 101 91 113 101 113 112 101 112 102 102 112 114 102 114 115 115 114 116 116 114 117 116 117 118 116 118 119 119 118 120 120 118 121 120 121 122 115 116 123 123 116 119 102 115 103 121 118 124 124 118 117 124 117 125 125 117 111 125 111 109 125 109 126 125 126 127 127 126 128 127 128 129 128 126 130 130 126 110 125 127 124 115 123 131 115 131 103 57 38 40 57 40 132 132 40 110 61 55 23 27 65 28 28 65 133 133 65 134 133 134 129 72 73 75 75 73 122 60 74 59 70 71 74 74 71 104 66 67 73 73 67 135 135 67 136 135 136 137 135 137 120 117 114 111 111 114 112 49 34 35 49 35 133 64 69 65 65 69 134 73 135 122 68 75 69 69 75 138 138 75 122 107 105 132 56 57 71 71 57 104 40 39 45 40 45 110 54 53 61 54 61 92 91 90 99 45 44 51 45 51 130 28 133 35 131 123 139 139 123 140 131 139 81 51 48 49 51 49 128 35 14 16 35 16 28 69 138 134 134 138 141 134 141 129 57 132 105 26 28 16 52 54 67 67 54 136 140 123 119 85 79 139 92 86 136 92 136 54 137 136 86 121 124 141 139 140 85 141 138 121 79 81 139 103 131 82 81 82 131 140 119 137 128 130 51 109 110 126 110 107 132 122 121 138 119 120 137 127 129 141 113 91 99 124 127 141 129 128 49 129 49 133 120 122 135 130 110 45 137 86 140 63 43 62 140 86 85 </DataArray>
				<DataArray type="Int64" Name="offsets" format="ascii" RangeMin="0" RangeMax="142">3 6 9 12 15 18 21 24 27 30 33 36 39 42 45 48 51 54 57 60 63 66 69 72 75 78 81 84 87 90 93 96 99 102 105 108 111 114 117 120 123 126 129 132 135 138 141 144 147 150 153 156 159 162 165 168 171 174 177 180 183 186 189 192 195 198 201 204 207 210 213 216 219 222 225 228 231 234 237 240 243 246 249 252 255 258 261 264 267 270 273 276 279 282 285 288 291 294 297 300 303 306 309 312 315 318 321 324 327 330 333 336 339 342 345 348 351 354 357 360 363 366 369 372 375 378 381 384 387 390 393 396 399 402 405 408 411 414 417 420 423 426 429 432 435 438 441 444 447 450 453 456 459 462 465 468 471 474 477 480 483 486 489 492 495 498 501 504 507 510 513 516 519 522 525 528 531 534 537 540 543 546 549 552 555 558 561 564 567 570 573 576 579 582 585 588 591 594 597 600 603 606 609 612 615 618 621 624 627 630 633 636 639 642 645 648 651 654 657 660 663 666 669 672 675 678 681 684 687 690 693 696 699 702 705 708 711 714 717 720 723 726 </DataArray>
			</Polys>
		</Piece>
	</PolyData>
</VTKFile>
