<?xml version="1.0"?>
<VTKFile type="PolyData" version="1.0" byte_order="LittleEndian" header_type="UInt32" compressor="vtkZLibDataCompressor">
	<PolyData>
		<Piece NumberOfPoints="151" NumberOfPolys="258">
			<PointData>
				<DataArray type="Float64" Name="points" format="ascii" NumberOfComponents="3" RangeMin="0" RangeMax="10">0.768544 10 3.30742 0 10 3 0 9 3 9.23146 0 6.69258 10 0 7 10 1 7 8.35629 0 6.34252 8.4463 0.930229 6.37852 5.57086 0 5.22834 6.49934 0 5.59973 6.09519 0.915048 5.43808 3.71391 0 4.48556 4.64238 0 4.85695 4.17814 0.866025 4.67126 0.928477 0 3.37139 1.85695 0 3.74278 1.37738 0.819974 3.55095 5.35762 10 5.14305 4.42914 10 4.77166 4.83368 9.02123 4.93347 2.78543 0 4.11417 2.28793 0.89613 3.91517 10 3 7 10 4 7 9.19592 3.5 6.67837 0 6 3 0 5 3 0.804084 5.5 3.32163 10 9 7 10 10 7 9.38548 9.33353 6.75419 0 7 3 0.804084 6.5 3.32163 0 8 3 0.785951 7.51762 3.31438 10 5 7 9.19592 4.5 6.67837 0.760006 8.6062 3.304 0 1 3 0 0 3 0.62536 0.657188 3.25014 10 6 7 9.20518 5.50258 6.68207 0 2 3 0.770429 1.47869 3.30817 0 3 3 0.818075 2.47892 3.32723 0 4 3 0.804084 3.5 3.32163 10 7 7 10 8 7 9.20741 7.50569 6.68297 9.22291 6.5014 6.68917 0.804084 4.5 3.32163 5.11424 0.872788 5.0457 8.14305 10 6.25722 7.21457 10 5.88583 7.72047 9.09214 6.08819 3.24967 0.866025 4.29987 10 2 7 9.19991 1.39117 6.67996 3.50066 10 4.40027 3.97305 9.29612 4.58922 1.64371 10 3.65748 1.52403 9.08103 3.60961 6.28609 10 5.51444 6.75887 9.12562 5.70355 9.2537 8.50669 6.70148 9.18808 2.48033 6.67523 2.57219 10 4.02887 3.10138 9.06798 4.24055 2.21797 9.33108 3.88719 9.07152 10 6.62861 7.42781 0 5.97113 7.79629 0.6564 6.11851 5.8314 9.13167 5.33256 7.0399 0.829089 5.81596 8.64251 9.15989 6.45701 8.38718 2.99113 6.35487 8.39709 3.98721 6.35884 8.41404 1.96165 6.36562 1.60817 6 3.64327 1.59646 7.0054 3.63858 2.41225 6.5 3.9649 2.41225 5.5 3.9649 1.60817 5 3.64327 8.32573 8.09898 6.33029 8.29906 5.04927 6.31963 8.47267 6.07011 6.38907 2.44172 4.5063 3.97669 1.63624 3.98984 3.6545 3.23217 5.03468 4.29287 3.21421 6.03334 4.28568 2.38041 7.5084 3.95216 3.20299 7.01877 4.2812 1.54466 8.03784 3.61786 8.47694 6.99697 6.39077 4.12744 5.59984 4.65098 4.08578 4.44466 4.63431 3.17334 8.01025 4.26933 3.98942 7.52337 4.59577 3.97843 6.5958 4.59137 3.99218 8.47248 4.59687 4.80068 7.98305 4.92027 4.73734 7.07044 4.89493 2.59105 3.44136 4.03642 1.64494 2.97587 3.65798 2.39248 2.52076 3.95699 2.31402 8.50594 3.92561 3.20037 4.16433 4.28015 1.71801 1.86166 3.68721 3.71391 1.73205 4.48556 7.60036 2.44601 6.04014 7.4983 3.49741 5.99932 7.67261 1.46218 6.06904 6.72192 1.86891 5.68877 6.88816 2.81494 5.75527 2.77229 1.74621 4.10891 5.63023 1.79327 5.25209 4.64238 1.73205 4.85695 4.17814 2.59808 4.67126 3.22978 2.58408 4.29191 5.11312 2.61051 5.04525 4.62924 3.47826 4.8517 5.57193 3.4747 5.22877 6.07373 2.68045 5.42949 6.51042 3.5076 5.60417 3.66022 3.44296 4.46409 5.50026 8.36433 5.2001 6.30184 8.27035 5.52074 7.25962 8.20708 5.90385 6.74387 7.39007 5.69755 7.66464 7.2951 6.06585 7.19062 6.57168 5.87625 6.28365 6.56427 5.51346 6.81136 5.81051 5.72454 5.89463 5.78281 5.35785 7.90283 6.55369 6.16113 5.09335 4.30788 5.03734 6.01481 4.29635 5.40593 5.52994 5.04299 5.21197 6.42217 5.0601 5.56887 6.9253 4.30947 5.77012 7.31789 5.07835 5.92716 7.70157 4.38614 6.08063 4.76395 5.03131 4.90558 5.37266 6.48291 5.14906 5.04458 5.71319 5.01783 4.6438 6.29769 4.85752 5.68742 7.44302 5.27497 7.67614 5.85167 6.07046 </DataArray>
				<DataArray type="Float64" Name="unique vertices" format="ascii" NumberOfComponents="1" RangeMin="3" RangeMax="839">73 7 91 127 3 84 128 839 131 130 731 133 132 732 136 135 733 68 69 734 134 735 82 81 736 94 95 737 76 6 738 93 739 92 740 80 741 836 99 5 742 79 743 98 744 97 745 96 746 78 77 747 748 749 750 65 66 751 752 83 838 70 753 72 837 67 754 755 756 71 757 758 64 129 759 760 761 762 763 764 765 766 767 768 769 770 771 772 773 774 775 776 777 778 779 780 781 782 783 784 785 786 787 788 789 790 791 792 793 794 795 796 797 798 799 800 801 802 803 804 805 806 807 808 809 810 811 812 813 814 815 816 817 818 819 820 821 822 823 824 825 826 827 828 829 830 831 832 833 834 835 </DataArray>
			</PointData>
			<Points>
				<DataArray type="Float64" Name="Points" format="ascii" NumberOfComponents="3" RangeMin="0" RangeMax="10">0.768543991081869 10 3.30741759643275 0 10 3 0 9 3 9.23145600891813 0 6.69258240356725 10 0 7 10 1 7 8.35629021796733 0 6.34251608718693 8.44630215488386 0.930228916999793 6.37852086195354 5.57086014531156 0 5.22834405812462 6.49933683619681 0 5.59973473447873 6.09519106706494 0.915047904725542 5.43807642682597 3.71390676354104 0 4.48556270541641 4.6423834544263 0 4.85695338177052 4.17814510898367 0.866025403784439 4.67125804359347 0.928476690885259 0 3.3713906763541 1.85695338177052 0 3.74278135270821 1.37737984077701 0.819973915281297 3.5509519363108 5.3576165455737 10 5.14304661822948 4.42913985468844 10 4.77165594187538 4.83367949483011 9.02123412263473 4.93347179793204 2.78543007265578 0 4.11417202906231 2.28792991181851 0.89613032838723 3.9151719647274 10 3 7 10 4 7 9.19591559887165 3.5 6.67836623954866 0 6 3 0 5 3 0.804084401128346 5.5 3.32163376045134 10 9 7 10 10 7 9.38547757073256 9.33352841412944 6.75419102829302 0 7 3 0.804084401128346 6.5 3.32163376045134 0 8 3 0.785951348418472 7.51761930028291 3.31438053936739 10 5 7 9.19591559887165 4.5 6.67836623954866 0.760006355003998 8.60619610303093 3.3040025420016 0 1 3 0 0 3 0.625360239103689 0.657187831405137 3.25014409564147 10 6 7 9.20518024869034 5.50257757221012 6.68207209947614 0 2 3 0.77042906841886 1.47869234275211 3.30817162736754 0 3 3 0.818074591967849 2.47892172248149 3.32722983678714 0 4 3 0.804084401128346 3.5 3.32163376045134 10 7 7 10 8 7 9.20741494488281 7.50569105121631 6.68296597795313 9.22291227454595 6.5013968863811 6.68916490981838 0.804084401128346 4.5 3.32163376045134 5.11424416925671 0.872787976590696 5.04569766770268 8.14304661822948 10 6.25721864729179 7.21456992734422 10 5.88582797093769 7.72047490035781 9.09213951560512 6.08818996014312 3.24966841809841 0.866025403784439 4.29986736723936 10 2 7 9.19990496279799 1.3911704703813 6.6799619851192 3.50066316380318 10 4.40026526552127 3.97304650426621 9.2961213645015 4.58921860170648 1.64370978203266 10 3.65748391281307 1.52402898201884 9.08103063134705 3.60961159280753 6.28609323645896 10 5.51443729458358 6.75887037407251 9.12561577540484 5.703548149629 9.25370123729117 8.50669253454229 6.70148049491647 9.18807631187586 2.48033297027056 6.67523052475035 2.57218647291792 10 4.02887458916717 3.10137606139525 9.06798172420819 4.2405504245581 2.21796901281629 9.33107996514337 3.88718760512652 9.07152330911474 10 6.6286093236459 7.42781352708207 0 5.97112541083283 7.79628526817105 0.65640042446579 6.11851410726842 5.83140222747079 9.13166643161457 5.33256089098832 7.03990274358077 0.829088584786513 5.81596109743231 8.64251335116476 9.15988933288729 6.4570053404659 8.38717990580037 2.99113055865526 6.35487196232015 8.39708764441796 3.98721124254109 6.35883505776718 8.41404373189305 1.96165422562049 6.36561749275722 1.60816880225669 6 3.64326752090268 1.5964589369145 7.00539643051679 3.6385835747658 2.41225320338504 6.5 3.96490128135402 2.41225320338504 5.5 3.96490128135402 1.60816880225669 5 3.64326752090268 8.32572797847547 8.09898331052929 6.33029119139019 8.29906485019234 5.04927165634647 6.31962594007693 8.47267442277351 6.0701114083118 6.3890697691094 2.44172187651686 4.50630250394092 3.97668875060674 1.6362391656568 3.98984062632708 3.65449566626272 3.23217315013137 5.03468294862732 4.29286926005255 3.2142118634274 6.03334196377701 4.28568474537096 2.38041061813775 7.50840359706444 3.9521642472551 3.20298886689465 7.0187667600989 4.28119554675786 1.54465940200817 8.03783751691849 3.61786376080327 8.47693644899898 6.99697020880634 6.39077457959959 4.12743980951278 5.59983724400544 4.65097592380511 4.08578169343913 4.44465522184115 4.63431267737565 3.17333690012553 8.0102510387958 4.26933476005021 3.98941988505944 7.52337301999476 4.59576795402378 3.97843405438669 6.5957999686497 4.59137362175468 3.99218368880996 8.47248022011538 4.59687347552398 4.80067939153388 7.98304763276642 4.92027175661355 4.73733606038392 7.07043971392281 4.89493442415357 2.59104575343964 3.4413631017622 4.03641830137586 1.64493927273342 2.97587121324928 3.65797570909337 2.39248492415388 2.52076340870662 3.95699396966155 2.31401887606225 8.50593620026347 3.9256075504249 3.20037371504374 4.16432565137039 4.2801494860175 1.71801357046122 1.86166474251765 3.68720542818449 3.71390676354104 1.73205080756888 4.48556270541641 7.60035607325611 2.44601081754409 6.04014242930244 7.49829703438295 3.49740905783976 5.99931881375318 7.67260648130562 1.46217568052023 6.06904259252225 6.72191521198149 1.86891440389428 5.6887660847926 6.88816482460764 2.81494102348038 5.75526592984306 2.77228648071062 1.74620688932536 4.10891459228425 5.63023208976127 1.79327029785343 5.25209283590451 4.6423834544263 1.73205080756888 4.85695338177052 4.17814510898367 2.59807621135332 4.67125804359347 3.22978167571205 2.5840777870583 4.29191267028482 5.11312490526674 2.61051037078225 5.04524996210669 4.62923986248113 3.47825769689424 4.85169594499245 5.57192688492758 3.47470495544653 5.22877075397103 6.07373157421476 2.68044771746072 5.4294926296859 6.51041595216149 3.50760250303558 5.6041663808646 3.66021597033564 3.4429643268659 4.46408638813426 5.50026147365187 8.364327290771 5.20010458946075 6.30183877600064 8.27035006077839 5.52073551040026 7.25962326628258 8.20707755496564 5.90384930651303 6.74386759435455 7.39006706472473 5.69754703774182 7.66463555763219 7.29510337338651 6.06585422305288 7.19061681675252 6.57167709380842 5.87624672670101 6.28364957617474 6.56427357760623 5.51345983046989 6.81135613795889 5.81050955291431 5.72454245518356 5.89462932894564 5.78281219400217 5.35785173157826 7.90282752520539 6.55368715664913 6.16113101008215 5.09334757946136 4.30788475144076 5.03733903178455 6.01481263664122 4.29634641221558 5.40592505465649 5.52993659805372 5.04299436058907 5.21197463922149 6.42216634118661 5.06009561934993 5.56886653647464 6.92529520334794 4.30946629590956 5.77011808133917 7.31789414124138 5.07834754873898 5.92715765649655 7.7015724059954 4.38613679007505 6.08062896239816 4.76395003073044 5.0313145863131 4.90558001229218 5.37266007759521 6.48291110307908 5.14906403103809 5.04457617709935 5.71319328908116 5.01783047083974 4.6438042621081 6.29769192555163 4.85752170484324 5.6874247837732 7.44301911068642 5.27496991350928 7.67613910190103 5.85167102134839 6.07045564076041 </DataArray>
			</Points>
			<CellData />
			<Polys>
				<DataArray type="Int64" Name="connectivity" format="ascii" RangeMin="0" RangeMax="150">0 1 2 3 4 5 6 3 7 8 9 10 11 12 13 14 15 16 17 18 19 15 20 21 22 23 24 25 26 27 28 29 30 31 25 32 33 31 34 23 35 36 2 33 37 38 39 40 35 41 42 43 38 44 45 43 46 47 45 48 49 50 51 41 49 52 26 47 53 12 8 54 55 56 57 20 11 58 5 59 60 18 61 62 63 0 64 56 65 66 39 14 40 50 28 67 59 22 68 61 69 70 69 63 71 29 72 30 73 6 74 65 17 75 9 73 76 72 55 77 68 22 24 68 24 78 78 24 79 59 68 60 60 68 80 21 20 58 25 27 32 32 27 81 32 81 82 82 81 83 83 81 84 84 81 85 85 81 27 51 50 67 51 67 86 86 67 77 36 35 42 36 42 87 87 42 88 36 87 79 84 85 89 89 85 90 90 85 53 90 53 48 48 53 47 84 89 91 83 84 92 42 41 52 42 52 88 82 83 93 93 83 94 82 93 95 82 95 34 32 82 34 32 34 31 27 26 53 27 53 85 23 36 24 24 36 79 49 51 52 52 51 96 84 91 92 92 91 97 97 91 98 15 21 16 37 33 34 37 34 95 60 80 7 93 94 99 99 94 100 100 94 101 99 100 102 102 100 103 103 100 104 99 102 70 102 103 19 89 90 105 105 90 106 105 106 107 80 68 78 44 38 40 44 40 16 48 45 46 48 46 106 10 9 76 94 83 92 94 92 101 93 99 108 93 108 95 108 99 70 91 89 109 91 109 98 43 44 46 46 44 110 110 44 16 46 110 106 11 13 58 58 13 111 13 12 54 56 66 57 18 62 19 67 28 30 67 30 77 96 51 86 107 106 110 6 7 74 8 10 54 90 48 106 92 97 101 80 78 112 112 78 113 80 112 114 114 112 115 115 112 116 114 115 76 80 114 7 116 112 113 104 100 101 21 58 117 117 58 111 77 55 57 37 95 64 64 95 108 54 10 118 118 10 115 63 64 71 111 13 119 119 13 54 111 119 120 111 120 121 111 121 117 117 121 107 120 119 122 122 119 118 120 122 123 123 122 124 124 122 125 124 125 126 126 125 116 113 78 79 121 120 127 121 127 105 127 120 123 76 73 74 21 117 110 54 118 119 70 69 71 70 71 108 52 96 88 89 105 109 109 105 127 105 107 121 115 116 125 2 37 0 7 114 74 75 17 19 75 19 128 128 19 103 61 70 62 65 75 66 66 75 129 129 75 128 66 129 130 130 129 131 130 131 132 130 132 86 132 131 133 133 131 134 133 134 135 135 134 136 132 133 137 132 137 96 123 124 138 123 138 98 138 124 139 139 124 126 138 139 140 140 139 141 140 141 136 141 139 142 141 142 143 143 142 144 144 142 113 143 144 87 138 140 145 138 145 98 136 134 146 136 146 147 136 147 140 147 146 148 148 146 104 147 148 97 139 126 142 142 126 113 135 136 141 64 0 37 16 21 110 134 131 149 149 131 129 96 86 132 101 97 148 125 122 118 125 118 115 113 79 144 66 130 57 133 135 150 150 135 143 133 150 137 137 150 88 79 87 144 134 149 146 145 140 147 103 104 149 87 88 150 97 98 145 62 70 102 129 128 149 116 113 126 19 62 102 141 143 135 10 76 115 72 77 30 107 110 117 7 3 60 5 60 3 77 57 86 88 96 137 57 130 86 98 109 127 104 101 148 76 74 114 127 123 98 149 128 103 146 149 104 87 150 143 147 97 145 16 40 14 108 71 64 </DataArray>
				<DataArray type="Int64" Name="offsets" format="ascii" RangeMin="0" RangeMax="151">3 6 9 12 15 18 21 24 27 30 33 36 39 42 45 48 51 54 57 60 63 66 69 72 75 78 81 84 87 90 93 96 99 102 105 108 111 114 117 120 123 126 129 132 135 138 141 144 147 150 153 156 159 162 165 168 171 174 177 180 183 186 189 192 195 198 201 204 207 210 213 216 219 222 225 228 231 234 237 240 243 246 249 252 255 258 261 264 267 270 273 276 279 282 285 288 291 294 297 300 303 306 309 312 315 318 321 324 327 330 333 336 339 342 345 348 351 354 357 360 363 366 369 372 375 378 381 384 387 390 393 396 399 402 405 408 411 414 417 420 423 426 429 432 435 438 441 444 447 450 453 456 459 462 465 468 471 474 477 480 483 486 489 492 495 498 501 504 507 510 513 516 519 522 525 528 531 534 537 540 543 546 549 552 555 558 561 564 567 570 573 576 579 582 585 588 591 594 597 600 603 606 609 612 615 618 621 624 627 630 633 636 639 642 645 648 651 654 657 660 663 666 669 672 675 678 681 684 687 690 693 696 699 702 705 708 711 714 717 720 723 726 729 732 735 738 741 744 747 750 753 756 759 762 765 768 771 774 </DataArray>
			</Polys>
		</Piece>
	</PolyData>
</VTKFile>
