<?xml version="1.0"?>
<VTKFile type="PolyData" version="1.0" byte_order="LittleEndian" header_type="UInt32" compressor="vtkZLibDataCompressor">
	<PolyData>
		<Piece NumberOfPoints="55" NumberOfPolys="82">
			<PointData>
				<DataArray type="Float64" Name="points" format="ascii" NumberOfComponents="3" RangeMin="0" RangeMax="10">10 0 9 10 0 8 10 0.892048 8.51395 10 3 7 10 4 7 10 3.49865 7.80007 10 1 10 10 0 10 10 0.674507 9.34945 10 6 10 10 5 10 10 5.5 9.27901 10 7 7 10 8 7 10 7.49923 7.79087 10 0 7 10 1 7 10 0.672704 7.66671 10 5 7 10 4.49973 7.80884 10 4 10 10 3 10 10 3.49942 9.29601 10 9 7 10 8.48336 7.76825 10 4.49987 9.29725 10 9 10 10 8 10 10 8.49481 9.29007 10 7 10 10 6.50048 9.2746 10 2 7 10 2.49649 7.79224 10 6 7 10 6.49977 7.80495 10 10 10 10 9.32568 9.35637 10 5.49992 7.80735 10 7.50305 9.27221 10 2 10 10 2.49654 9.26947 10 1.50353 7.76945 10 10 7 10 10 8 10 9.31539 7.65123 10 1.50474 9.26678 10 10 9 10 9.10208 8.51494 10 4.99983 8.56565 10 6 8.56564 10 7.00229 8.55813 10 3.99898 8.56614 10 1.97939 8.54245 10 2.99542 8.55909 10 8.01583 8.5466 </DataArray>
				<DataArray type="Float64" Name="unique vertices" format="ascii" NumberOfComponents="1" RangeMin="3" RangeMax="634">138 137 606 82 81 607 109 10 608 114 113 609 78 77 610 3 84 611 80 612 112 111 613 76 614 615 117 116 616 115 617 83 618 79 619 8 620 621 622 110 623 624 6 74 625 626 75 627 628 629 630 631 632 633 634 </DataArray>
			</PointData>
			<Points>
				<DataArray type="Float64" Name="Points" format="ascii" NumberOfComponents="3" RangeMin="0" RangeMax="10">10 0 9 10 0 8 10 0.892048412773973 8.5139478533147 10 3 7 10 4 7 10 3.4986456033899 7.80006905009851 10 1 10 10 0 10 10 0.674507415644239 9.34944778247352 10 6 10 10 5 10 10 5.5 9.27900635094611 10 7 7 10 8 7 10 7.49922977343478 7.79086898165114 10 0 7 10 1 7 10 0.672703696813481 7.66670946190998 10 5 7 10 4.49973251844242 7.8088357300019 10 4 10 10 3 10 10 3.49941715536742 9.29600902748151 10 9 7 10 8.48336128764158 7.76824886541395 10 4.49986964011063 9.29725294395197 10 9 10 10 8 10 10 8.49480736595133 9.29007184201656 10 7 10 10 6.50047700102412 9.27460369257946 10 2 7 10 2.49648533890689 7.79224262377136 10 6 7 10 6.49977512914288 7.80495426112464 10 10 10 10 9.32568109448984 9.35637259323325 10 5.49992485350273 7.80734802248603 10 7.50305280655439 9.27220798744312 10 2 10 10 2.49653950047129 9.26947208488346 10 1.50352959868312 7.76944809889565 10 10 7 10 10 8 10 9.31538920248486 7.65123302438777 10 1.50473940075618 9.26678258410834 10 10 9 10 9.10207940773983 8.51494454814064 10 4.99983019110054 8.56565240162777 10 6 8.56564040279477 10 7.0022898261477 8.55813016288576 10 3.998977275441 8.56614101595448 10 1.97938579462858 8.54244740050762 10 2.99542114734862 8.55909247723876 10 8.01582870787096 8.54660359745273 </DataArray>
			</Points>
			<CellData />
			<Polys>
				<DataArray type="Int64" Name="connectivity" format="ascii" RangeMin="0" RangeMax="54">0 1 2 3 4 5 6 7 8 9 10 11 12 13 14 15 16 17 4 18 19 20 21 22 13 23 24 10 20 25 26 27 28 29 9 30 31 3 32 33 12 34 35 26 36 18 33 37 27 29 38 7 0 8 1 15 17 21 39 40 16 31 41 42 43 44 39 6 45 46 35 36 23 42 44 43 46 47 19 18 37 19 37 48 48 37 49 48 49 11 17 16 41 17 41 2 33 34 37 37 34 49 49 34 50 49 50 30 4 19 5 5 19 51 51 19 48 51 48 25 41 31 32 41 32 52 52 32 53 13 24 14 14 24 54 54 24 47 14 54 50 50 54 38 41 52 2 3 5 32 32 5 53 34 12 14 34 14 50 5 51 53 20 22 25 25 22 51 44 43 47 44 47 24 40 39 45 40 45 52 11 10 25 11 25 48 38 29 30 38 30 50 45 6 8 45 8 2 21 40 22 22 40 53 36 26 28 36 28 47 47 46 36 27 38 28 28 38 54 30 9 11 30 11 49 53 51 22 52 53 40 45 2 52 47 28 54 17 2 1 2 8 0 44 24 23 </DataArray>
				<DataArray type="Int64" Name="offsets" format="ascii" RangeMin="0" RangeMax="55">3 6 9 12 15 18 21 24 27 30 33 36 39 42 45 48 51 54 57 60 63 66 69 72 75 78 81 84 87 90 93 96 99 102 105 108 111 114 117 120 123 126 129 132 135 138 141 144 147 150 153 156 159 162 165 168 171 174 177 180 183 186 189 192 195 198 201 204 207 210 213 216 219 222 225 228 231 234 237 240 243 246 </DataArray>
			</Polys>
		</Piece>
	</PolyData>
</VTKFile>
