<?xml version="1.0"?>
<VTKFile type="PolyData" version="1.0" byte_order="LittleEndian" header_type="UInt32" compressor="vtkZLibDataCompressor">
	<PolyData>
		<Piece NumberOfPoints="101" NumberOfPolys="166">
			<PointData>
				<DataArray type="Float64" Name="unique vertices" format="ascii" NumberOfComponents="1" RangeMin="5" RangeMax="730">142 143 664 5 99 665 144 666 139 140 667 88 87 668 93 92 669 97 96 670 9 118 671 89 672 91 7 673 90 674 126 11 675 120 121 676 94 677 95 678 125 679 98 680 122 681 123 682 683 86 684 119 685 686 687 141 688 124 689 690 85 691 692 693 694 695 696 697 698 699 700 701 702 703 704 705 706 707 708 709 710 711 712 713 714 715 716 717 718 719 720 721 722 723 724 725 726 727 728 729 730 </DataArray>
				<DataArray type="Float64" Name="points" format="ascii" NumberOfComponents="3" RangeMin="0" RangeMax="10">0 0 6 0 0 5 0 0.866025 5.5 0 0 3 0 1 3 0 0.67065 3.68306 0 0 4 0 0.798256 4.50504 0 0 9 0 0 8 0 0.794264 8.50089 0 10 6 0 10 7 0 9.06949 6.48756 0 7 3 0 8 3 0 7.5 3.86603 0 3 3 0 4 3 0 3.43664 3.79026 0 10 10 0 9 10 0 9.33206 9.32573 0 10 5 0 9.32617 5.5166 0 9 3 0 10 3 0 9.33206 3.67371 0 10 4 0 9.09918 4.58999 0 1 10 0 0 10 0 0.648837 9.31995 0 7 10 0 6 10 0 6.5 9.12201 0 6 3 0 6.5 3.86603 0 5 3 0 4.47662 3.84562 0 2 10 0 1.46398 9.15659 0 2 3 0 1.62475 3.90599 0 5 10 0 5.5 9.13398 0 4 10 0 4.5 9.13398 0 5.5 3.86603 0 10 8 0 9.32564 7.47107 0 8 10 0 7.5 9.13398 0 2.54464 3.64563 0 8.49793 9.19561 0 0 7 0 0.867791 7.51015 0 3 10 0 3.49353 9.12542 0 8.49792 3.79955 0 10 9 0 0.866025 6.5 0 9.0989 8.40085 0 2.46651 9.10048 0 1.825 8.12091 0 1.73205 7 0 2.51866 7.43103 0 2.5932 6.54302 0 1.71153 4.9908 0 1.73205 6 0 2.59588 5.56351 0 3.89706 4.63842 0 4.96177 4.71876 0 4.34808 5.61149 0 5.48791 5.59586 0 5 6.4641 0 6 6.4641 0 5.5 7.33013 0 2.73028 4.53673 0 3.40042 5.27607 0 3.42849 6.11234 0 6 4.73205 0 7 4.73205 0 6.5 5.59808 0 7.5 5.59808 0 7 6.4641 0 8 6.4641 0 7.50056 7.35385 0 6.5 7.33013 0 7.00214 8.22561 0 8.01785 8.28606 0 8.48973 7.41868 0 8.0177 4.6901 0 8.49153 5.54856 0 6 8.2131 0 4.15565 6.55169 0 4.50879 7.34326 0 4.99922 8.24234 0 3.99065 8.2314 0 2.96214 8.21934 0 3.46 7.21105 </DataArray>
			</PointData>
			<Points>
				<DataArray type="Float64" Name="Points" format="ascii" NumberOfComponents="3" RangeMin="0" RangeMax="10">0 0 6 0 0 5 0 0.866025403784439 5.5 0 0 3 0 1 3 0 0.670649579633198 3.68306016859117 0 0 4 0 0.798256245583836 4.50503634398803 0 0 9 0 0 8 0 0.794264251750094 8.50088503412349 0 10 6 0 10 7 0 9.06949255517942 6.48755749155043 0 7 3 0 8 3 0 7.5 3.86602540378444 0 3 3 0 4 3 0 3.43663898024629 3.7902569816039 0 10 10 0 9 10 0 9.33206184873593 9.32573119952695 0 10 5 0 9.32616868193195 5.51659738976339 0 9 3 0 10 3 0 9.33206184873593 3.67370788820958 0 10 4 0 9.09918482083092 4.58998674596477 0 1 10 0 0 10 0 0.648837139187338 9.31994721558625 0 7 10 0 6 10 0 6.5 9.12200846792815 0 6 3 0 6.5 3.86602540378444 0 5 3 0 4.47661871333292 3.84561561330963 0 2 10 0 1.46397655609633 9.1565945728168 0 2 3 0 1.62475388808473 3.90599237087923 0 5 10 0 5.5 9.13397459621556 0 4 10 0 4.5 9.13397459621556 0 5.5 3.86602540378444 0 10 8 0 9.32563774177436 7.47106937576537 0 8 10 0 7.5 9.13397459621556 0 2.54463618744527 3.64562555680697 0 8.49792898073061 9.19561074915953 0 0 7 0 0.867791175042279 7.51014920757819 0 3 10 0 3.49353079537042 9.1254173764211 0 8.49791581645209 3.79955137545468 0 10 9 0 0.866025403784439 6.5 0 9.09890047098428 8.40085061436332 0 2.46650635094611 9.10048094716167 0 1.8250012146973 8.12090545681481 0 1.73205080756888 7 0 2.51866323697879 7.43102827468618 0 2.59319656379882 6.54301894504191 0 1.7115311023497 4.99080408885319 0 1.73205080756888 6 0 2.5958822129072 5.56351394630477 0 3.89705780714908 4.63842122280182 0 4.9617747992297 4.71876026511766 0 4.34808027756882 5.61148606472827 0 5.48790507117498 5.59586268574985 0 5 6.46410161513775 0 6 6.46410161513775 0 5.5 7.33012701892219 0 2.7302796589507 4.5367305659439 0 3.40041985936986 5.27607087955416 0 3.42849448170207 6.11233907093996 0 6 4.73205080756888 0 7 4.73205080756888 0 6.5 5.59807621135332 0 7.5 5.59807621135332 0 7 6.46410161513775 0 8 6.46410161513775 0 7.50056399224773 7.35384922024335 0 6.5 7.33012701892219 0 7.00214453157358 8.2256134996912 0 8.01785508066608 8.28606069417182 0 8.48973297901258 7.41868142712539 0 8.01769710932385 4.69010044927047 0 8.49153413407264 5.54856040344957 0 6 8.21310443778047 0 4.15564881604791 6.551692371006 0 4.50879301798493 7.34326403629646 0 4.99922091399397 8.24234216879137 0 3.99065096792762 8.23139856125683 0 2.96213511976646 8.21934342161821 0 3.45999551784967 7.21104943232346 </DataArray>
			</Points>
			<CellData />
			<Polys>
				<DataArray type="Int64" Name="connectivity" format="ascii" RangeMin="0" RangeMax="100">0 1 2 3 4 5 1 6 7 6 3 5 8 9 10 11 12 13 14 15 16 17 18 19 20 21 22 23 11 24 25 26 27 28 23 29 30 31 32 33 34 35 36 14 37 18 38 39 40 30 41 4 42 43 34 44 45 31 8 32 44 46 47 26 28 27 38 36 48 12 49 50 51 33 52 42 17 53 21 51 54 9 55 56 46 57 58 15 25 59 60 20 22 55 0 61 49 60 62 57 40 63 10 9 56 10 56 64 64 56 65 64 65 66 66 65 67 10 64 41 2 1 7 2 7 68 68 7 43 2 68 69 69 68 70 0 2 61 61 2 69 55 61 56 56 61 65 65 61 69 65 69 67 19 18 39 19 39 71 71 39 72 71 72 73 73 72 74 73 74 75 75 74 76 75 76 77 70 68 78 70 78 79 70 79 80 80 79 73 74 72 81 81 72 48 48 72 39 48 39 38 81 48 37 37 48 36 17 19 53 53 19 78 81 37 82 81 82 83 83 82 84 83 84 85 85 84 86 85 86 87 85 87 88 88 87 89 89 87 90 89 90 52 83 85 76 76 85 88 90 87 91 91 87 86 90 91 62 5 4 43 5 43 7 25 27 59 59 27 29 71 73 79 69 70 67 67 70 80 16 15 59 16 59 92 92 59 29 16 92 82 82 92 84 84 92 93 84 93 86 93 92 29 74 81 83 74 83 76 19 71 78 88 89 94 94 89 35 73 75 95 95 75 96 96 75 77 16 82 37 16 37 14 78 68 43 43 42 53 43 53 78 79 78 71 22 21 54 22 54 62 63 40 41 63 41 64 29 23 24 29 24 93 24 11 13 24 13 93 41 30 32 41 32 10 35 34 45 35 45 94 33 35 52 52 35 89 86 93 13 28 29 27 50 49 62 50 62 91 45 44 47 45 47 97 97 47 98 97 98 96 45 97 94 13 12 50 13 50 91 47 46 58 47 58 98 51 52 54 54 52 90 57 63 58 58 63 99 99 63 64 58 99 98 98 99 100 98 100 96 62 60 22 77 76 88 95 96 100 100 99 66 64 66 99 66 67 100 77 88 94 91 86 13 73 95 80 96 77 97 77 94 97 67 80 100 95 100 80 54 90 62 5 7 6 10 32 8 </DataArray>
				<DataArray type="Int64" Name="offsets" format="ascii" RangeMin="0" RangeMax="101">3 6 9 12 15 18 21 24 27 30 33 36 39 42 45 48 51 54 57 60 63 66 69 72 75 78 81 84 87 90 93 96 99 102 105 108 111 114 117 120 123 126 129 132 135 138 141 144 147 150 153 156 159 162 165 168 171 174 177 180 183 186 189 192 195 198 201 204 207 210 213 216 219 222 225 228 231 234 237 240 243 246 249 252 255 258 261 264 267 270 273 276 279 282 285 288 291 294 297 300 303 306 309 312 315 318 321 324 327 330 333 336 339 342 345 348 351 354 357 360 363 366 369 372 375 378 381 384 387 390 393 396 399 402 405 408 411 414 417 420 423 426 429 432 435 438 441 444 447 450 453 456 459 462 465 468 471 474 477 480 483 486 489 492 495 498 </DataArray>
			</Polys>
		</Piece>
	</PolyData>
</VTKFile>
