<?xml version="1.0"?>
<VTKFile type="PolyData" version="1.0" byte_order="LittleEndian" header_type="UInt32" compressor="vtkZLibDataCompressor">
	<PolyData>
		<Piece NumberOfPoints="24" NumberOfVerts="24">
			<PointData>
				<DataArray type="Float64" Name="geode_implicit_value" format="ascii" NumberOfComponents="1" RangeMin="0" RangeMax="1">0 0 0 0 0 0 0 0 0 0 0 0 1 1 1 1 1 1 1 1 1 1 1 1 </DataArray>
				<DataArray type="Float64" Name="points" format="ascii" NumberOfComponents="3" RangeMin="0.5" RangeMax="39.0999985">0.5 1 2 20 2 12 1.5 19 12.3 39.1 1.5 7 1.5 39.1 8.5 37.5 38.2 11.1 17.8 35.5 15 13.9 15.1 17 25.9 14 17.5 22 25 25 15 29 20 27 28 22 1 0.5 21 19 1.5 27 1.3 17 29.5 38.7 2.1 25 1.2 37.8 30 38.1 37.7 26.8 17.5 36.2 31 14.2 14.9 29.5 26.5 15 29.5 21.2 23.4 35.5 14.5 28.7 33 26.3 25.7 34 </DataArray>
				<DataArray type="Float64" Name="geode_implicit_weight" format="ascii" NumberOfComponents="1" RangeMin="10" RangeMax="10">10 10 10 10 10 10 10 10 10 10 10 10 10 10 10 10 10 10 10 10 10 10 10 10 </DataArray>
			</PointData>
			<Points>
				<DataArray type="Float64" Name="Points" format="ascii" NumberOfComponents="3" RangeMin="0.5" RangeMax="39.100000000000001">0.5 1 2 20 2 12 1.5 19 12.3 39.1 1.5 7 1.5 39.1 8.5 37.5 38.2 11.1 17.8 35.5 15 13.9 15.1 17 25.9 14 17.5 22 25 25 15 29 20 27 28 22 1 0.5 21 19 1.5 27 1.3 17 29.5 38.7 2.1 25 1.2 37.8 30 38.1 37.7 26.8 17.5 36.2 31 14.2 14.9 29.5 26.5 15 29.5 21.2 23.4 35.5 14.5 28.7 33 26.3 25.7 34 </DataArray>
			</Points>
			<Verts>
				<DataArray type="Int64" Name="connectivity" format="ascii" RangeMin="0" RangeMax="23">0 1 2 3 4 5 6 7 8 9 10 11 12 13 14 15 16 17 18 19 20 21 22 23 </DataArray>
				<DataArray type="Int64" Name="offsets" format="ascii" RangeMin="0" RangeMax="24">1 2 3 4 5 6 7 8 9 10 11 12 13 14 15 16 17 18 19 20 21 22 23 24 </DataArray>
			</Verts>
		</Piece>
	</PolyData>
</VTKFile>
